--------------------------------------------------------------------------
[[4778,1],1]: A high-performance Open MPI point-to-point messaging module
was unable to find any relevant network interfaces:

Module: OpenFabrics (openib)
  Host: 2274251cca31

Another transport will be used instead, although this may result in
lower performance.
--------------------------------------------------------------------------
 argument  1 = cpd01055.nw



============================== echo of input deck ==============================
title "cpd01055"
start cpd01055

memory global 1600 mb heap 100 mb stack 600 mb

permanent_dir /kb/module/work/tmp/simulation/cpd01055/dft
#scratch_dir /scratch

echo
print low

charge 0
geometry noautoz noautosym
load /kb/module/work/tmp/simulation/cpd01055/dft/cpd01055.xyz
end
basis
* library 6-31G*
end

driver
 maxiter 50
xyz cpd01055_geom
end

set lindep:n_dep 0

dft
  maxiter 100
  xc b3lyp
  mulliken
  print "mulliken ao"
  print "final vectors analysis"
end

task dft optimize ignore
property
 dipole
end

task dft property
================================================================================


                                         
                                         


              Northwest Computational Chemistry Package (NWChem) 6.8
              ------------------------------------------------------


                    Environmental Molecular Sciences Laboratory
                       Pacific Northwest National Laboratory
                                Richland, WA 99352

                              Copyright (c) 1994-2017
                       Pacific Northwest National Laboratory
                            Battelle Memorial Institute

             NWChem is an open-source computational chemistry package
                        distributed under the terms of the
                      Educational Community License (ECL) 2.0
             A copy of the license is included with this distribution
                              in the LICENSE.TXT file

                                  ACKNOWLEDGMENT
                                  --------------

            This software and its documentation were developed at the
            EMSL at Pacific Northwest National Laboratory, a multiprogram
            national laboratory, operated for the U.S. Department of Energy
            by Battelle under Contract Number DE-AC05-76RL01830. Support
            for this work was provided by the Department of Energy Office
            of Biological and Environmental Research, Office of Basic
            Energy Sciences, and the Office of Advanced Scientific Computing.


           Job information
           ---------------

    hostname        = 2274251cca31
    program         = nwchem
    date            = Sun Mar  8 23:29:10 2020

    compiled        = Sat_Mar_07_21:45:49_2020
    source          = /codes/nwchem-6.8.1
    nwchem branch   = 6.8.1
    nwchem revision = v6.8-133-ge032219
    ga revision     = 5.6.5
    use scalapack   = F
    input           = cpd01055.nw
    prefix          = cpd01055.
    data base       = /kb/module/work/tmp/simulation/cpd01055/dft/cpd01055.db
    status          = startup
    nproc           =        2
    time left       =     -1s



           Memory information
           ------------------

    heap     =   13107200 doubles =    100.0 Mbytes
    stack    =   78643197 doubles =    600.0 Mbytes
    global   =  209715200 doubles =   1600.0 Mbytes (distinct from heap & stack)
    total    =  301465597 doubles =   2300.0 Mbytes
    verify   = yes
    hardfail = no 


           Directory information
           ---------------------

  0 permanent = /kb/module/work/tmp/simulation/cpd01055/dft
  0 scratch   = .




                                NWChem Input Module
                                -------------------


                                     cpd01055
                                     --------

 Scaling coordinates for geometry "geometry" by  1.889725989
 (inverse scale =  0.529177249)



                             Geometry "geometry" -> ""
                             -------------------------

 Output coordinates in angstroms (scale by  1.889725989 to convert to a.u.)

  No.       Tag          Charge          X              Y              Z
 ---- ---------------- ---------- -------------- -------------- --------------
    1 O                    8.0000     0.00171000     0.11934000     0.00000000
    2 H                    1.0000     0.75651000    -0.48826000     0.00000000
    3 H                    1.0000    -0.77019000    -0.46646000     0.00000000

      Atomic Mass 
      ----------- 

      O                 15.994910
      H                  1.007825


 Effective nuclear repulsion energy (a.u.)       9.0843542719

            Nuclear Dipole moment (a.u.) 
            ----------------------------
        X                 Y               Z
 ---------------- ---------------- ----------------
     0.0000000000    -0.0000000000     0.0000000000


            XYZ format geometry
            -------------------
     3
 geometry
 O                     0.00171000     0.11934000     0.00000000
 H                     0.75651000    -0.48826000     0.00000000
 H                    -0.77019000    -0.46646000     0.00000000

 ==============================================================================
                                internuclear distances
 ------------------------------------------------------------------------------
       center one      |      center two      | atomic units |  angstroms
 ------------------------------------------------------------------------------
    2 H                |   1 O                |     1.83109  |     0.96897
    3 H                |   1 O                |     1.83117  |     0.96902
 ------------------------------------------------------------------------------
                         number of included internuclear distances:          2
 ==============================================================================



 ==============================================================================
                                 internuclear angles
 ------------------------------------------------------------------------------
        center 1       |       center 2       |       center 3       |  degrees
 ------------------------------------------------------------------------------
    2 H                |   1 O                |   3 H                |   103.97
 ------------------------------------------------------------------------------
                            number of included internuclear angles:          1
 ==============================================================================



  library name resolved from: environment
  library file name is: </codes/nwchem-6.8.1/data/libraries/>
  


 Summary of "ao basis" -> "" (cartesian)
 ------------------------------------------------------------------------------
       Tag                 Description            Shells   Functions and Types
 ---------------- ------------------------------  ------  ---------------------
 *                           6-31G*                   on all atoms 




                           NWChem Geometry Optimization
                           ----------------------------




                                     cpd01055


 maximum gradient threshold         (gmax) =   0.000450
 rms gradient threshold             (grms) =   0.000300
 maximum cartesian step threshold   (xmax) =   0.001800
 rms cartesian step threshold       (xrms) =   0.001200
 fixed trust radius                (trust) =   0.300000
 maximum step size to saddle      (sadstp) =   0.100000
 energy precision                  (eprec) =   5.0D-06
 maximum number of steps          (nptopt) =   50
 initial hessian option           (inhess) =    0
 line search option               (linopt) =    1
 hessian update option            (modupd) =    1
 saddle point option              (modsad) =    0
 initial eigen-mode to follow     (moddir) =    0
 initial variable to follow       (vardir) =    0
 follow first negative mode     (firstneg) =    T
 apply conjugacy                    (opcg) =    F
 source of zmatrix                         =           


          -------------------
          Energy Minimization
          -------------------


 Using diagonal initial Hessian 

          --------
          Step   0
          --------

                                 NWChem DFT Module
                                 -----------------


                                     cpd01055


                      Basis "ao basis" -> "ao basis" (cartesian)
                      -----
  O (Oxygen)
  ----------
            Exponent  Coefficients 
       -------------- ---------------------------------------------------------
  1 S  5.48467170E+03  0.001831
  1 S  8.25234950E+02  0.013950
  1 S  1.88046960E+02  0.068445
  1 S  5.29645000E+01  0.232714
  1 S  1.68975700E+01  0.470193
  1 S  5.79963530E+00  0.358521

  2 S  1.55396160E+01 -0.110778
  2 S  3.59993360E+00 -0.148026
  2 S  1.01376180E+00  1.130767

  3 P  1.55396160E+01  0.070874
  3 P  3.59993360E+00  0.339753
  3 P  1.01376180E+00  0.727159

  4 S  2.70005800E-01  1.000000

  5 P  2.70005800E-01  1.000000

  6 D  8.00000000E-01  1.000000

  H (Hydrogen)
  ------------
            Exponent  Coefficients 
       -------------- ---------------------------------------------------------
  1 S  1.87311370E+01  0.033495
  1 S  2.82539370E+00  0.234727
  1 S  6.40121700E-01  0.813757

  2 S  1.61277800E-01  1.000000



 Summary of "ao basis" -> "ao basis" (cartesian)
 ------------------------------------------------------------------------------
       Tag                 Description            Shells   Functions and Types
 ---------------- ------------------------------  ------  ---------------------
 O                           6-31G*                  6       15   3s2p1d
 H                           6-31G*                  2        2   2s



  Caching 1-el integrals 
   Time after variat. SCF:      0.4

     ---------------------------------------------
      Total Density - Mulliken Population Analysis
     ---------------------------------------------

    Atom       Charge   Shell Charges
 -----------   ------   -------------------------------------------------------
    1 O    8     9.06   2.00  0.94  3.12  0.86  2.08  0.06
    2 H    1     0.47   0.36  0.11
    3 H    1     0.47   0.36  0.11
   Time prior to 1st pass:      0.4


         Total DFT energy =      -76.408951492109
      One electron energy =     -122.931275661586
           Coulomb energy =       46.781006634442
    Exchange-Corr. energy =       -9.343036736908
 Nuclear repulsion energy =        9.084354271943

 Numeric. integr. density =       10.000001203231

     Total iterative time =      0.7s



                       DFT Final Molecular Orbital Analysis
                       ------------------------------------

 Vector    1  Occ=2.000000D+00  E=-1.913805D+01
              MO Center=  1.7D-03,  1.2D-01, -8.4D-16, r^2= 1.5D-02
   Bfn.  Coefficient  Atom+Function         Bfn.  Coefficient  Atom+Function  
  ----- ------------  ---------------      ----- ------------  ---------------
     1      0.992860  1 O  s                  2      0.026223  1 O  s          

 Vector    2  Occ=2.000000D+00  E=-9.974815D-01
              MO Center= -1.2D-03, -8.7D-02, -1.8D-13, r^2= 5.1D-01
   Bfn.  Coefficient  Atom+Function         Bfn.  Coefficient  Atom+Function  
  ----- ------------  ---------------      ----- ------------  ---------------
     2      0.469318  1 O  s                  6      0.439854  1 O  s          
     1     -0.209564  1 O  s                 16      0.138996  2 H  s          
    18      0.138979  3 H  s                  4     -0.127246  1 O  py         
     8     -0.060508  1 O  py         

 Vector    3  Occ=2.000000D+00  E=-5.175757D-01
              MO Center= -1.6D-03, -1.1D-01, -4.0D-14, r^2= 7.9D-01
   Bfn.  Coefficient  Atom+Function         Bfn.  Coefficient  Atom+Function  
  ----- ------------  ---------------      ----- ------------  ---------------
     3      0.517174  1 O  px                 7      0.269491  1 O  px         
    16      0.237574  2 H  s                 18     -0.237572  3 H  s          
    17      0.141650  2 H  s                 19     -0.141656  3 H  s          
    11     -0.071275  1 O  dxy        

 Vector    4  Occ=2.000000D+00  E=-3.715405D-01
              MO Center=  2.8D-03,  2.0D-01,  3.8D-13, r^2= 7.0D-01
   Bfn.  Coefficient  Atom+Function         Bfn.  Coefficient  Atom+Function  
  ----- ------------  ---------------      ----- ------------  ---------------
     4      0.552154  1 O  py                 6      0.409599  1 O  s          
     8      0.372812  1 O  py                 2      0.176744  1 O  s          
    16     -0.143476  2 H  s                 18     -0.143483  3 H  s          
    17     -0.114259  2 H  s                 19     -0.114271  3 H  s          
     1     -0.087861  1 O  s                 13     -0.052298  1 O  dyy        

 Vector    5  Occ=2.000000D+00  E=-2.910600D-01
              MO Center=  1.4D-03,  9.9D-02, -1.3D-12, r^2= 6.0D-01
   Bfn.  Coefficient  Atom+Function         Bfn.  Coefficient  Atom+Function  
  ----- ------------  ---------------      ----- ------------  ---------------
     5      0.644549  1 O  pz                 9      0.506083  1 O  pz         
    14     -0.061204  1 O  dyz        

 Vector    6  Occ=0.000000D+00  E= 6.256976D-02
              MO Center= -9.0D-03, -6.2D-01, -2.0D-12, r^2= 2.4D+00
   Bfn.  Coefficient  Atom+Function         Bfn.  Coefficient  Atom+Function  
  ----- ------------  ---------------      ----- ------------  ---------------
     6      1.258091  1 O  s                 17     -0.969017  2 H  s          
    19     -0.969169  3 H  s                  8     -0.476337  1 O  py         
     4     -0.280231  1 O  py                 2      0.119590  1 O  s          
     1     -0.100774  1 O  s                 16     -0.096724  2 H  s          
    18     -0.096757  3 H  s                 15     -0.057997  1 O  dzz        

 Vector    7  Occ=0.000000D+00  E= 1.481071D-01
              MO Center= -7.9D-03, -5.7D-01, -3.8D-15, r^2= 2.5D+00
   Bfn.  Coefficient  Atom+Function         Bfn.  Coefficient  Atom+Function  
  ----- ------------  ---------------      ----- ------------  ---------------
    17      1.276782  2 H  s                 19     -1.276546  3 H  s          
     7     -0.759343  1 O  px                 3     -0.413430  1 O  px         
    16      0.106971  2 H  s                 18     -0.106974  3 H  s          
    11      0.031985  1 O  dxy        

 Vector    8  Occ=0.000000D+00  E= 7.735373D-01
              MO Center= -2.5D-03, -1.5D-01, -2.3D-15, r^2= 1.6D+00
   Bfn.  Coefficient  Atom+Function         Bfn.  Coefficient  Atom+Function  
  ----- ------------  ---------------      ----- ------------  ---------------
    16      0.840366  2 H  s                 18     -0.840699  3 H  s          
    17     -0.654457  2 H  s                 19      0.654790  3 H  s          
     7     -0.429294  1 O  px                11     -0.340307  1 O  dxy        
     3     -0.174493  1 O  px         

 Vector    9  Occ=0.000000D+00  E= 8.597833D-01
              MO Center= -3.1D-03, -2.3D-01, -3.5D-11, r^2= 1.3D+00
   Bfn.  Coefficient  Atom+Function         Bfn.  Coefficient  Atom+Function  
  ----- ------------  ---------------      ----- ------------  ---------------
    16      0.723207  2 H  s                 18      0.722842  3 H  s          
     4      0.692732  1 O  py                17     -0.558911  2 H  s          
    19     -0.558772  3 H  s                  8     -0.361873  1 O  py         
     6      0.157554  1 O  s                 10      0.152133  1 O  dxx        
     2     -0.150074  1 O  s                 15     -0.125021  1 O  dzz        

 Vector   10  Occ=0.000000D+00  E= 8.908610D-01
              MO Center=  1.7D-03,  1.2D-01,  1.9D-10, r^2= 1.1D+00
   Bfn.  Coefficient  Atom+Function         Bfn.  Coefficient  Atom+Function  
  ----- ------------  ---------------      ----- ------------  ---------------
     9     -1.038610  1 O  pz                 5      0.959454  1 O  pz         
    14      0.028294  1 O  dyz        

 Vector   11  Occ=0.000000D+00  E= 8.947844D-01
              MO Center=  4.8D-03,  3.4D-01, -1.4D-10, r^2= 1.4D+00
   Bfn.  Coefficient  Atom+Function         Bfn.  Coefficient  Atom+Function  
  ----- ------------  ---------------      ----- ------------  ---------------
     6      1.395926  1 O  s                  8      0.838647  1 O  py         
     2     -0.827646  1 O  s                  4     -0.576472  1 O  py         
    16      0.452133  2 H  s                 18      0.452056  3 H  s          
    17     -0.359506  2 H  s                 19     -0.359555  3 H  s          
    15     -0.322936  1 O  dzz               13     -0.276162  1 O  dyy        

 Vector   12  Occ=0.000000D+00  E= 1.066021D+00
              MO Center=  1.5D-03,  1.0D-01,  2.0D-14, r^2= 1.5D+00
   Bfn.  Coefficient  Atom+Function         Bfn.  Coefficient  Atom+Function  
  ----- ------------  ---------------      ----- ------------  ---------------
     7      1.630154  1 O  px                 3     -0.988941  1 O  px         
    17     -0.925137  2 H  s                 19      0.925034  3 H  s          
    11      0.029543  1 O  dxy        

 Vector   13  Occ=0.000000D+00  E= 1.192214D+00
              MO Center= -5.2D-03, -3.7D-01, -1.1D-11, r^2= 1.4D+00
   Bfn.  Coefficient  Atom+Function         Bfn.  Coefficient  Atom+Function  
  ----- ------------  ---------------      ----- ------------  ---------------
     6      3.600777  1 O  s                  2     -1.460958  1 O  s          
     8     -1.100298  1 O  py                17     -0.775756  2 H  s          
    19     -0.775600  3 H  s                 10     -0.657457  1 O  dxx        
     4      0.402696  1 O  py                13     -0.392819  1 O  dyy        
    16     -0.347144  2 H  s                 18     -0.347158  3 H  s          

 Vector   14  Occ=0.000000D+00  E= 1.730115D+00
              MO Center=  2.4D-03,  1.7D-01, -1.3D-14, r^2= 6.2D-01
   Bfn.  Coefficient  Atom+Function         Bfn.  Coefficient  Atom+Function  
  ----- ------------  ---------------      ----- ------------  ---------------
    13      1.007628  1 O  dyy               10     -0.590528  1 O  dxx        
    15     -0.349766  1 O  dzz                6     -0.253088  1 O  s          
     8      0.143458  1 O  py                 2      0.090346  1 O  s          
    16      0.082284  2 H  s                 18      0.082286  3 H  s          
    11      0.045706  1 O  dxy               17      0.042181  2 H  s          

 Vector   15  Occ=0.000000D+00  E= 1.746193D+00
              MO Center=  1.7D-03,  1.2D-01,  8.1D-15, r^2= 6.1D-01
   Bfn.  Coefficient  Atom+Function         Bfn.  Coefficient  Atom+Function  
  ----- ------------  ---------------      ----- ------------  ---------------
    12      1.731872  1 O  dxz        

 Vector   16  Occ=0.000000D+00  E= 1.780231D+00
              MO Center=  2.1D-03,  1.4D-01,  5.0D-14, r^2= 6.1D-01
   Bfn.  Coefficient  Atom+Function         Bfn.  Coefficient  Atom+Function  
  ----- ------------  ---------------      ----- ------------  ---------------
    14      1.730559  1 O  dyz                9      0.034879  1 O  pz         

 Vector   17  Occ=0.000000D+00  E= 2.280340D+00
              MO Center=  1.5D-05,  3.2D-03, -1.6D-14, r^2= 8.3D-01
   Bfn.  Coefficient  Atom+Function         Bfn.  Coefficient  Atom+Function  
  ----- ------------  ---------------      ----- ------------  ---------------
     6      1.533860  1 O  s                 15     -1.128814  1 O  dzz        
    16     -0.810826  2 H  s                 18     -0.810975  3 H  s          
    10      0.741641  1 O  dxx                8     -0.734625  1 O  py         
     2     -0.513510  1 O  s                 17     -0.140236  2 H  s          
    19     -0.140177  3 H  s                 13      0.063805  1 O  dyy        

 Vector   18  Occ=0.000000D+00  E= 2.577151D+00
              MO Center=  9.2D-04,  6.3D-02,  2.0D-14, r^2= 8.7D-01
   Bfn.  Coefficient  Atom+Function         Bfn.  Coefficient  Atom+Function  
  ----- ------------  ---------------      ----- ------------  ---------------
    11      2.201457  1 O  dxy               16      0.924078  2 H  s          
    18     -0.923782  3 H  s                  7     -0.846217  1 O  px         
    17     -0.048781  2 H  s                 19      0.048852  3 H  s          
     3      0.037741  1 O  px                10      0.031385  1 O  dxx        
    13     -0.031485  1 O  dyy        

 Vector   19  Occ=0.000000D+00  E= 3.552341D+00
              MO Center=  1.7D-03,  1.2D-01, -2.6D-13, r^2= 1.0D+00
   Bfn.  Coefficient  Atom+Function         Bfn.  Coefficient  Atom+Function  
  ----- ------------  ---------------      ----- ------------  ---------------
     6      3.689936  1 O  s                 15     -1.578678  1 O  dzz        
    13     -1.550001  1 O  dyy               10     -1.526234  1 O  dxx        
    17     -0.554944  2 H  s                 19     -0.554887  3 H  s          
     1     -0.467973  1 O  s                  8     -0.332751  1 O  py         
     2      0.286621  1 O  s                  4      0.116255  1 O  py         


     ---------------------------------------------
      Total Density - Mulliken Population Analysis
     ---------------------------------------------

    Atom       Charge   Shell Charges
 -----------   ------   -------------------------------------------------------
    1 O    8     8.77   1.99  0.90  2.92  0.98  1.94  0.04
    2 H    1     0.61   0.48  0.14
    3 H    1     0.61   0.48  0.14

     -------------------------------------------
      Total Density - Lowdin Population Analysis
     -------------------------------------------

    Atom       Charge   Shell Charges
 -----------   ------   -------------------------------------------------------
    1 O    8     8.67   1.98  0.72  2.78  0.50  2.13  0.57
    2 H    1     0.66   0.44  0.22
    3 H    1     0.66   0.44  0.22


                         DFT ENERGY GRADIENTS

    atom               coordinates                        gradient
                 x          y          z           x          y          z
   1 O       0.003231   0.225520   0.000000    0.000031  -0.000362  -0.000000
   2 H       1.429597  -0.922678   0.000000    0.000656   0.000186   0.000000
   3 H      -1.455448  -0.881482   0.000000   -0.000687   0.000177   0.000000


@ Step       Energy      Delta E   Gmax     Grms     Xrms     Xmax   Walltime
@ ---- ---------------- -------- -------- -------- -------- -------- --------
@    0     -76.40895149  0.0D+00  0.00069  0.00035  0.00000  0.00000      1.8
                                                                    


                                 NWChem DFT Module
                                 -----------------


                                     cpd01055



  Caching 1-el integrals 
   Time after variat. SCF:      1.8

     ---------------------------------------------
      Total Density - Mulliken Population Analysis
     ---------------------------------------------

    Atom       Charge   Shell Charges
 -----------   ------   -------------------------------------------------------
    1 O    8     8.77   1.99  0.90  2.92  0.98  1.94  0.04
    2 H    1     0.61   0.48  0.14
    3 H    1     0.61   0.48  0.14
   Time prior to 1st pass:      1.8


         Total DFT energy =      -76.408951187322
      One electron energy =     -122.927154466041
           Coulomb energy =       46.777389071433
    Exchange-Corr. energy =       -9.342729513349
 Nuclear repulsion energy =        9.083543720634

 Numeric. integr. density =       10.000000980035

     Total iterative time =      0.5s



                       DFT Final Molecular Orbital Analysis
                       ------------------------------------

 Vector    1  Occ=2.000000D+00  E=-1.913844D+01
              MO Center=  1.7D-03,  1.2D-01, -2.0D-17, r^2= 1.5D-02
   Bfn.  Coefficient  Atom+Function         Bfn.  Coefficient  Atom+Function  
  ----- ------------  ---------------      ----- ------------  ---------------
     1      0.992861  1 O  s                  2      0.026225  1 O  s          

 Vector    2  Occ=2.000000D+00  E=-9.979643D-01
              MO Center= -1.3D-03, -8.6D-02, -1.8D-15, r^2= 5.1D-01
   Bfn.  Coefficient  Atom+Function         Bfn.  Coefficient  Atom+Function  
  ----- ------------  ---------------      ----- ------------  ---------------
     2      0.469137  1 O  s                  6      0.439548  1 O  s          
     1     -0.209462  1 O  s                 16      0.139114  2 H  s          
    18      0.139129  3 H  s                  4     -0.127961  1 O  py         
     8     -0.060847  1 O  py         

 Vector    3  Occ=2.000000D+00  E=-5.163518D-01
              MO Center= -1.5D-03, -1.1D-01, -8.1D-16, r^2= 7.9D-01
   Bfn.  Coefficient  Atom+Function         Bfn.  Coefficient  Atom+Function  
  ----- ------------  ---------------      ----- ------------  ---------------
     3      0.517493  1 O  px                 7      0.270131  1 O  px         
    16      0.237219  2 H  s                 18     -0.237222  3 H  s          
    17      0.142458  2 H  s                 19     -0.142454  3 H  s          
    11     -0.071618  1 O  dxy        

 Vector    4  Occ=2.000000D+00  E=-3.728945D-01
              MO Center=  2.8D-03,  2.0D-01, -6.3D-15, r^2= 7.0D-01
   Bfn.  Coefficient  Atom+Function         Bfn.  Coefficient  Atom+Function  
  ----- ------------  ---------------      ----- ------------  ---------------
     4      0.551236  1 O  py                 6      0.411211  1 O  s          
     8      0.371300  1 O  py                 2      0.177764  1 O  s          
    16     -0.144093  2 H  s                 18     -0.144087  3 H  s          
    17     -0.114533  2 H  s                 19     -0.114523  3 H  s          
     1     -0.088330  1 O  s                 13     -0.052495  1 O  dyy        

 Vector    5  Occ=2.000000D+00  E=-2.912717D-01
              MO Center=  1.4D-03,  1.0D-01,  2.9D-15, r^2= 6.0D-01
   Bfn.  Coefficient  Atom+Function         Bfn.  Coefficient  Atom+Function  
  ----- ------------  ---------------      ----- ------------  ---------------
     5      0.644632  1 O  pz                 9      0.505986  1 O  pz         
    14     -0.061477  1 O  dyz        

 Vector    6  Occ=0.000000D+00  E= 6.240290D-02
              MO Center= -8.8D-03, -6.2D-01,  5.5D-15, r^2= 2.4D+00
   Bfn.  Coefficient  Atom+Function         Bfn.  Coefficient  Atom+Function  
  ----- ------------  ---------------      ----- ------------  ---------------
     6      1.255661  1 O  s                 17     -0.968215  2 H  s          
    19     -0.968090  3 H  s                  8     -0.478689  1 O  py         
     4     -0.281493  1 O  py                 2      0.119077  1 O  s          
     1     -0.100462  1 O  s                 16     -0.096076  2 H  s          
    18     -0.096049  3 H  s                 15     -0.058000  1 O  dzz        

 Vector    7  Occ=0.000000D+00  E= 1.478397D-01
              MO Center= -8.3D-03, -5.7D-01, -3.8D-17, r^2= 2.5D+00
   Bfn.  Coefficient  Atom+Function         Bfn.  Coefficient  Atom+Function  
  ----- ------------  ---------------      ----- ------------  ---------------
    17      1.277055  2 H  s                 19     -1.277249  3 H  s          
     7     -0.757627  1 O  px                 3     -0.413676  1 O  px         
    16      0.108048  2 H  s                 18     -0.108046  3 H  s          
    11      0.031765  1 O  dxy        

 Vector    8  Occ=0.000000D+00  E= 7.709506D-01
              MO Center= -2.0D-03, -1.5D-01,  8.5D-17, r^2= 1.6D+00
   Bfn.  Coefficient  Atom+Function         Bfn.  Coefficient  Atom+Function  
  ----- ------------  ---------------      ----- ------------  ---------------
    16      0.839923  2 H  s                 18     -0.839664  3 H  s          
    17     -0.658655  2 H  s                 19      0.658392  3 H  s          
     7     -0.428277  1 O  px                11     -0.338432  1 O  dxy        
     3     -0.170474  1 O  px         

 Vector    9  Occ=0.000000D+00  E= 8.613193D-01
              MO Center= -3.1D-03, -2.0D-01,  8.7D-15, r^2= 1.3D+00
   Bfn.  Coefficient  Atom+Function         Bfn.  Coefficient  Atom+Function  
  ----- ------------  ---------------      ----- ------------  ---------------
     4      0.718327  1 O  py                16      0.703188  2 H  s          
    18      0.703470  3 H  s                 17     -0.548239  2 H  s          
    19     -0.548344  3 H  s                  8     -0.399077  1 O  py         
    10      0.153452  1 O  dxx                2     -0.126044  1 O  s          
     6      0.123173  1 O  s                 15     -0.115351  1 O  dzz        

 Vector   10  Occ=0.000000D+00  E= 8.906971D-01
              MO Center=  1.7D-03,  1.2D-01, -1.1D-13, r^2= 1.1D+00
   Bfn.  Coefficient  Atom+Function         Bfn.  Coefficient  Atom+Function  
  ----- ------------  ---------------      ----- ------------  ---------------
     9     -1.038649  1 O  pz                 5      0.959399  1 O  pz         
    14      0.028544  1 O  dyz        

 Vector   11  Occ=0.000000D+00  E= 8.953501D-01
              MO Center=  4.5D-03,  3.1D-01,  1.0D-13, r^2= 1.5D+00
   Bfn.  Coefficient  Atom+Function         Bfn.  Coefficient  Atom+Function  
  ----- ------------  ---------------      ----- ------------  ---------------
     6      1.426476  1 O  s                  2     -0.844488  1 O  s          
     8      0.817146  1 O  py                 4     -0.544546  1 O  py         
    16      0.477901  2 H  s                 18      0.477970  3 H  s          
    17     -0.384333  2 H  s                 19     -0.384293  3 H  s          
    15     -0.331339  1 O  dzz               13     -0.277750  1 O  dyy        

 Vector   12  Occ=0.000000D+00  E= 1.065343D+00
              MO Center=  1.4D-03,  1.0D-01,  7.1D-16, r^2= 1.5D+00
   Bfn.  Coefficient  Atom+Function         Bfn.  Coefficient  Atom+Function  
  ----- ------------  ---------------      ----- ------------  ---------------
     7      1.625276  1 O  px                 3     -0.989033  1 O  px         
    17     -0.926039  2 H  s                 19      0.926127  3 H  s          
    11      0.026988  1 O  dxy        

 Vector   13  Occ=0.000000D+00  E= 1.194642D+00
              MO Center= -5.2D-03, -3.6D-01, -4.5D-16, r^2= 1.4D+00
   Bfn.  Coefficient  Atom+Function         Bfn.  Coefficient  Atom+Function  
  ----- ------------  ---------------      ----- ------------  ---------------
     6      3.588644  1 O  s                  2     -1.452833  1 O  s          
     8     -1.111194  1 O  py                17     -0.769047  2 H  s          
    19     -0.769174  3 H  s                 10     -0.657302  1 O  dxx        
     4      0.402977  1 O  py                13     -0.393922  1 O  dyy        
    16     -0.357647  2 H  s                 18     -0.357636  3 H  s          

 Vector   14  Occ=0.000000D+00  E= 1.728193D+00
              MO Center=  2.5D-03,  1.7D-01,  1.2D-15, r^2= 6.2D-01
   Bfn.  Coefficient  Atom+Function         Bfn.  Coefficient  Atom+Function  
  ----- ------------  ---------------      ----- ------------  ---------------
    13      1.005469  1 O  dyy               10     -0.601138  1 O  dxx        
    15     -0.337530  1 O  dzz                6     -0.251021  1 O  s          
     8      0.143393  1 O  py                 2      0.089736  1 O  s          
    16      0.080932  2 H  s                 18      0.080929  3 H  s          
    11      0.045894  1 O  dxy               17      0.042199  2 H  s          

 Vector   15  Occ=0.000000D+00  E= 1.746751D+00
              MO Center=  1.7D-03,  1.2D-01, -3.4D-16, r^2= 6.1D-01
   Bfn.  Coefficient  Atom+Function         Bfn.  Coefficient  Atom+Function  
  ----- ------------  ---------------      ----- ------------  ---------------
    12      1.731876  1 O  dxz        

 Vector   16  Occ=0.000000D+00  E= 1.779473D+00
              MO Center=  2.1D-03,  1.5D-01,  1.0D-16, r^2= 6.1D-01
   Bfn.  Coefficient  Atom+Function         Bfn.  Coefficient  Atom+Function  
  ----- ------------  ---------------      ----- ------------  ---------------
    14      1.730549  1 O  dyz                9      0.035107  1 O  pz         

 Vector   17  Occ=0.000000D+00  E= 2.279902D+00
              MO Center=  5.9D-05,  3.9D-03,  1.4D-16, r^2= 8.3D-01
   Bfn.  Coefficient  Atom+Function         Bfn.  Coefficient  Atom+Function  
  ----- ------------  ---------------      ----- ------------  ---------------
     6      1.540784  1 O  s                 15     -1.133234  1 O  dzz        
    16     -0.812393  2 H  s                 18     -0.812270  3 H  s          
     8     -0.742415  1 O  py                10      0.729751  1 O  dxx        
     2     -0.516223  1 O  s                 17     -0.141932  2 H  s          
    19     -0.141981  3 H  s                 13      0.078427  1 O  dyy        

 Vector   18  Occ=0.000000D+00  E= 2.575598D+00
              MO Center=  9.0D-04,  6.6D-02,  3.9D-16, r^2= 8.6D-01
   Bfn.  Coefficient  Atom+Function         Bfn.  Coefficient  Atom+Function  
  ----- ------------  ---------------      ----- ------------  ---------------
    11      2.201779  1 O  dxy               16      0.921248  2 H  s          
    18     -0.921493  3 H  s                  7     -0.836555  1 O  px         
    17     -0.052271  2 H  s                 19      0.052213  3 H  s          
     3      0.036959  1 O  px                10      0.031525  1 O  dxx        
    13     -0.031442  1 O  dyy        

 Vector   19  Occ=0.000000D+00  E= 3.551013D+00
              MO Center=  1.7D-03,  1.2D-01, -3.9D-16, r^2= 1.0D+00
   Bfn.  Coefficient  Atom+Function         Bfn.  Coefficient  Atom+Function  
  ----- ------------  ---------------      ----- ------------  ---------------
     6      3.687097  1 O  s                 15     -1.578737  1 O  dzz        
    13     -1.548852  1 O  dyy               10     -1.525458  1 O  dxx        
    17     -0.553412  2 H  s                 19     -0.553460  3 H  s          
     1     -0.467839  1 O  s                  8     -0.335158  1 O  py         
     2      0.287278  1 O  s                  4      0.116804  1 O  py         


     ---------------------------------------------
      Total Density - Mulliken Population Analysis
     ---------------------------------------------

    Atom       Charge   Shell Charges
 -----------   ------   -------------------------------------------------------
    1 O    8     8.77   1.99  0.90  2.92  0.98  1.94  0.04
    2 H    1     0.61   0.48  0.14
    3 H    1     0.61   0.48  0.14

     -------------------------------------------
      Total Density - Lowdin Population Analysis
     -------------------------------------------

    Atom       Charge   Shell Charges
 -----------   ------   -------------------------------------------------------
    1 O    8     8.67   1.98  0.72  2.78  0.50  2.13  0.57
    2 H    1     0.66   0.44  0.22
    3 H    1     0.66   0.44  0.22
 Line search: 
     step= 1.00 grad=-1.1D-05 hess= 1.2D-05 energy=    -76.408951 mode=accept  
 new step= 1.00                   predicted energy=    -76.408951

          --------
          Step   1
          --------

                                 NWChem DFT Module
                                 -----------------


                                     cpd01055




  The DFT is already converged 

         Total DFT energy =    -76.408951187322



                         DFT ENERGY GRADIENTS

    atom               coordinates                        gradient
                 x          y          z           x          y          z
   1 O       0.003257   0.231284  -0.000000   -0.000012   0.001245  -0.000000
   2 H       1.423399  -0.925494   0.000000   -0.000100  -0.000633   0.000000
   3 H      -1.449276  -0.884430   0.000000    0.000113  -0.000612  -0.000000


  Step       Energy      Delta E   Gmax     Grms     Xrms     Xmax   Walltime
  ---- ---------------- -------- -------- -------- -------- -------- --------
@    1     -76.40895119  3.0D-07  0.00124  0.00051  0.00375  0.00620      3.2
                                                                    


                                 NWChem DFT Module
                                 -----------------


                                     cpd01055



  Caching 1-el integrals 
   Time after variat. SCF:      3.2

     ---------------------------------------------
      Total Density - Mulliken Population Analysis
     ---------------------------------------------

    Atom       Charge   Shell Charges
 -----------   ------   -------------------------------------------------------
    1 O    8     8.77   1.99  0.90  2.92  0.98  1.94  0.04
    2 H    1     0.61   0.48  0.14
    3 H    1     0.61   0.48  0.14
   Time prior to 1st pass:      3.2


         Total DFT energy =      -76.408954508283
      One electron energy =     -122.937866761771
           Coulomb energy =       46.783635295378
    Exchange-Corr. energy =       -9.343394032886
 Nuclear repulsion energy =        9.088670990996

 Numeric. integr. density =       10.000001095706

     Total iterative time =      0.5s



                       DFT Final Molecular Orbital Analysis
                       ------------------------------------

 Vector    1  Occ=2.000000D+00  E=-1.913815D+01
              MO Center=  1.7D-03,  1.2D-01, -2.4D-19, r^2= 1.5D-02
   Bfn.  Coefficient  Atom+Function         Bfn.  Coefficient  Atom+Function  
  ----- ------------  ---------------      ----- ------------  ---------------
     1      0.992860  1 O  s                  2      0.026224  1 O  s          

 Vector    2  Occ=2.000000D+00  E=-9.979267D-01
              MO Center= -1.3D-03, -8.7D-02, -1.9D-16, r^2= 5.1D-01
   Bfn.  Coefficient  Atom+Function         Bfn.  Coefficient  Atom+Function  
  ----- ------------  ---------------      ----- ------------  ---------------
     2      0.469210  1 O  s                  6      0.439477  1 O  s          
     1     -0.209499  1 O  s                 16      0.139163  2 H  s          
    18      0.139166  3 H  s                  4     -0.127696  1 O  py         
     8     -0.060640  1 O  py         

 Vector    3  Occ=2.000000D+00  E=-5.171795D-01
              MO Center= -1.6D-03, -1.1D-01, -6.0D-18, r^2= 7.9D-01
   Bfn.  Coefficient  Atom+Function         Bfn.  Coefficient  Atom+Function  
  ----- ------------  ---------------      ----- ------------  ---------------
     3      0.517399  1 O  px                 7      0.269718  1 O  px         
    16      0.237447  2 H  s                 18     -0.237447  3 H  s          
    17      0.141930  2 H  s                 19     -0.141930  3 H  s          
    11     -0.071457  1 O  dxy        

 Vector    4  Occ=2.000000D+00  E=-3.722194D-01
              MO Center=  2.8D-03,  2.0D-01,  3.1D-16, r^2= 7.0D-01
   Bfn.  Coefficient  Atom+Function         Bfn.  Coefficient  Atom+Function  
  ----- ------------  ---------------      ----- ------------  ---------------
     4      0.551771  1 O  py                 6      0.410439  1 O  s          
     8      0.372118  1 O  py                 2      0.177260  1 O  s          
    16     -0.143723  2 H  s                 18     -0.143722  3 H  s          
    17     -0.114252  2 H  s                 19     -0.114250  3 H  s          
     1     -0.088099  1 O  s                 13     -0.052415  1 O  dyy        

 Vector    5  Occ=2.000000D+00  E=-2.911962D-01
              MO Center=  1.4D-03,  1.0D-01, -5.0D-16, r^2= 6.0D-01
   Bfn.  Coefficient  Atom+Function         Bfn.  Coefficient  Atom+Function  
  ----- ------------  ---------------      ----- ------------  ---------------
     5      0.644577  1 O  pz                 9      0.506049  1 O  pz         
    14     -0.061381  1 O  dyz        

 Vector    6  Occ=0.000000D+00  E= 6.263106D-02
              MO Center= -8.9D-03, -6.2D-01, -8.1D-17, r^2= 2.4D+00
   Bfn.  Coefficient  Atom+Function         Bfn.  Coefficient  Atom+Function  
  ----- ------------  ---------------      ----- ------------  ---------------
     6      1.258029  1 O  s                 17     -0.969168  2 H  s          
    19     -0.969145  3 H  s                  8     -0.477398  1 O  py         
     4     -0.280595  1 O  py                 2      0.119292  1 O  s          
     1     -0.100648  1 O  s                 16     -0.096250  2 H  s          
    18     -0.096245  3 H  s                 15     -0.058051  1 O  dzz        

 Vector    7  Occ=0.000000D+00  E= 1.481604D-01
              MO Center= -8.1D-03, -5.7D-01,  8.2D-19, r^2= 2.5D+00
   Bfn.  Coefficient  Atom+Function         Bfn.  Coefficient  Atom+Function  
  ----- ------------  ---------------      ----- ------------  ---------------
    17      1.277982  2 H  s                 19     -1.278018  3 H  s          
     7     -0.758791  1 O  px                 3     -0.413379  1 O  px         
    16      0.107314  2 H  s                 18     -0.107314  3 H  s          
    11      0.031930  1 O  dxy        

 Vector    8  Occ=0.000000D+00  E= 7.725174D-01
              MO Center= -2.1D-03, -1.5D-01, -1.3D-16, r^2= 1.6D+00
   Bfn.  Coefficient  Atom+Function         Bfn.  Coefficient  Atom+Function  
  ----- ------------  ---------------      ----- ------------  ---------------
    16      0.840249  2 H  s                 18     -0.840200  3 H  s          
    17     -0.655024  2 H  s                 19      0.654975  3 H  s          
     7     -0.430862  1 O  px                11     -0.339396  1 O  dxy        
     3     -0.172130  1 O  px         

 Vector    9  Occ=0.000000D+00  E= 8.610312D-01
              MO Center= -3.1D-03, -2.1D-01, -1.2D-15, r^2= 1.3D+00
   Bfn.  Coefficient  Atom+Function         Bfn.  Coefficient  Atom+Function  
  ----- ------------  ---------------      ----- ------------  ---------------
     4      0.708526  1 O  py                16      0.711144  2 H  s          
    18      0.711197  3 H  s                 17     -0.551490  2 H  s          
    19     -0.551510  3 H  s                  8     -0.384190  1 O  py         
    10      0.153716  1 O  dxx                2     -0.134560  1 O  s          
     6      0.133514  1 O  s                 15     -0.118920  1 O  dzz        

 Vector   10  Occ=0.000000D+00  E= 8.907800D-01
              MO Center=  1.7D-03,  1.2D-01,  2.2D-14, r^2= 1.1D+00
   Bfn.  Coefficient  Atom+Function         Bfn.  Coefficient  Atom+Function  
  ----- ------------  ---------------      ----- ------------  ---------------
     9     -1.038622  1 O  pz                 5      0.959435  1 O  pz         
    14      0.028410  1 O  dyz        

 Vector   11  Occ=0.000000D+00  E= 8.951019D-01
              MO Center=  4.6D-03,  3.2D-01, -2.0D-14, r^2= 1.4D+00
   Bfn.  Coefficient  Atom+Function         Bfn.  Coefficient  Atom+Function  
  ----- ------------  ---------------      ----- ------------  ---------------
     6      1.409649  1 O  s                  2     -0.836084  1 O  s          
     8      0.827159  1 O  py                 4     -0.557460  1 O  py         
    16      0.468786  2 H  s                 18      0.468798  3 H  s          
    17     -0.374001  2 H  s                 19     -0.373994  3 H  s          
    15     -0.327587  1 O  dzz               13     -0.276837  1 O  dyy        

 Vector   12  Occ=0.000000D+00  E= 1.065813D+00
              MO Center=  1.4D-03,  1.0D-01, -4.4D-17, r^2= 1.5D+00
   Bfn.  Coefficient  Atom+Function         Bfn.  Coefficient  Atom+Function  
  ----- ------------  ---------------      ----- ------------  ---------------
     7      1.627985  1 O  px                 3     -0.989169  1 O  px         
    17     -0.926851  2 H  s                 19      0.926866  3 H  s          
    11      0.027600  1 O  dxy        

 Vector   13  Occ=0.000000D+00  E= 1.193447D+00
              MO Center= -5.2D-03, -3.7D-01, -4.2D-16, r^2= 1.4D+00
   Bfn.  Coefficient  Atom+Function         Bfn.  Coefficient  Atom+Function  
  ----- ------------  ---------------      ----- ------------  ---------------
     6      3.597272  1 O  s                  2     -1.457632  1 O  s          
     8     -1.105464  1 O  py                17     -0.773386  2 H  s          
    19     -0.773409  3 H  s                 10     -0.657486  1 O  dxx        
     4      0.402414  1 O  py                13     -0.393334  1 O  dyy        
    16     -0.352033  2 H  s                 18     -0.352031  3 H  s          

 Vector   14  Occ=0.000000D+00  E= 1.729081D+00
              MO Center=  2.4D-03,  1.7D-01, -1.9D-16, r^2= 6.2D-01
   Bfn.  Coefficient  Atom+Function         Bfn.  Coefficient  Atom+Function  
  ----- ------------  ---------------      ----- ------------  ---------------
    13      1.006638  1 O  dyy               10     -0.595522  1 O  dxx        
    15     -0.343988  1 O  dzz                6     -0.252495  1 O  s          
     8      0.143569  1 O  py                 2      0.090133  1 O  s          
    16      0.081750  2 H  s                 18      0.081750  3 H  s          
    11      0.045787  1 O  dxy               17      0.042280  2 H  s          

 Vector   15  Occ=0.000000D+00  E= 1.746349D+00
              MO Center=  1.7D-03,  1.2D-01,  3.6D-16, r^2= 6.1D-01
   Bfn.  Coefficient  Atom+Function         Bfn.  Coefficient  Atom+Function  
  ----- ------------  ---------------      ----- ------------  ---------------
    12      1.731874  1 O  dxz        

 Vector   16  Occ=0.000000D+00  E= 1.779792D+00
              MO Center=  2.1D-03,  1.5D-01,  2.7D-17, r^2= 6.1D-01
   Bfn.  Coefficient  Atom+Function         Bfn.  Coefficient  Atom+Function  
  ----- ------------  ---------------      ----- ------------  ---------------
    14      1.730553  1 O  dyz                9      0.035000  1 O  pz         

 Vector   17  Occ=0.000000D+00  E= 2.280707D+00
              MO Center=  3.8D-05,  3.3D-03,  2.2D-17, r^2= 8.3D-01
   Bfn.  Coefficient  Atom+Function         Bfn.  Coefficient  Atom+Function  
  ----- ------------  ---------------      ----- ------------  ---------------
     6      1.539192  1 O  s                 15     -1.131174  1 O  dzz        
    16     -0.812541  2 H  s                 18     -0.812519  3 H  s          
     8     -0.739116  1 O  py                10      0.736183  1 O  dxx        
     2     -0.514842  1 O  s                 17     -0.141485  2 H  s          
    19     -0.141494  3 H  s                 13      0.070756  1 O  dyy        

 Vector   18  Occ=0.000000D+00  E= 2.577302D+00
              MO Center=  9.0D-04,  6.4D-02,  3.6D-18, r^2= 8.6D-01
   Bfn.  Coefficient  Atom+Function         Bfn.  Coefficient  Atom+Function  
  ----- ------------  ---------------      ----- ------------  ---------------
    11      2.202651  1 O  dxy               16      0.923669  2 H  s          
    18     -0.923713  3 H  s                  7     -0.842559  1 O  px         
    17     -0.050098  2 H  s                 19      0.050087  3 H  s          
     3      0.036814  1 O  px                10      0.031488  1 O  dxx        
    13     -0.031473  1 O  dyy        

 Vector   19  Occ=0.000000D+00  E= 3.551964D+00
              MO Center=  1.7D-03,  1.2D-01,  3.4D-20, r^2= 1.0D+00
   Bfn.  Coefficient  Atom+Function         Bfn.  Coefficient  Atom+Function  
  ----- ------------  ---------------      ----- ------------  ---------------
     6      3.689780  1 O  s                 15     -1.578754  1 O  dzz        
    13     -1.549684  1 O  dyy               10     -1.526195  1 O  dxx        
    17     -0.554625  2 H  s                 19     -0.554633  3 H  s          
     1     -0.467958  1 O  s                  8     -0.333936  1 O  py         
     2      0.286642  1 O  s                  4      0.116617  1 O  py         


     ---------------------------------------------
      Total Density - Mulliken Population Analysis
     ---------------------------------------------

    Atom       Charge   Shell Charges
 -----------   ------   -------------------------------------------------------
    1 O    8     8.77   1.99  0.90  2.92  0.98  1.94  0.04
    2 H    1     0.61   0.48  0.14
    3 H    1     0.61   0.48  0.14

     -------------------------------------------
      Total Density - Lowdin Population Analysis
     -------------------------------------------

    Atom       Charge   Shell Charges
 -----------   ------   -------------------------------------------------------
    1 O    8     8.67   1.98  0.72  2.78  0.50  2.13  0.57
    2 H    1     0.66   0.44  0.22
    3 H    1     0.66   0.44  0.22
 Line search: 
     step= 1.00 grad=-6.9D-06 hess= 3.6D-06 energy=    -76.408955 mode=accept  
 new step= 1.00                   predicted energy=    -76.408955

          --------
          Step   2
          --------

                                 NWChem DFT Module
                                 -----------------


                                     cpd01055




  The DFT is already converged 

         Total DFT energy =    -76.408954508283



                         DFT ENERGY GRADIENTS

    atom               coordinates                        gradient
                 x          y          z           x          y          z
   1 O       0.003230   0.227883  -0.000000   -0.000007  -0.000138  -0.000000
   2 H       1.425907  -0.923820   0.000000   -0.000091   0.000068   0.000000
   3 H      -1.451756  -0.882702   0.000000    0.000099   0.000070   0.000000


  Step       Energy      Delta E   Gmax     Grms     Xrms     Xmax   Walltime
  ---- ---------------- -------- -------- -------- -------- -------- --------
@    2     -76.40895451 -3.3D-06  0.00014  0.00007  0.00182  0.00340      4.5
                                     ok       ok                    


                                 NWChem DFT Module
                                 -----------------


                                     cpd01055



  Caching 1-el integrals 
   Time after variat. SCF:      4.6

     ---------------------------------------------
      Total Density - Mulliken Population Analysis
     ---------------------------------------------

    Atom       Charge   Shell Charges
 -----------   ------   -------------------------------------------------------
    1 O    8     8.77   1.99  0.90  2.92  0.98  1.94  0.04
    2 H    1     0.61   0.48  0.14
    3 H    1     0.61   0.48  0.14
   Time prior to 1st pass:      4.6


         Total DFT energy =      -76.408954526583
      One electron energy =     -122.934696290978
           Coulomb energy =       46.781666040437
    Exchange-Corr. energy =       -9.343162586560
 Nuclear repulsion energy =        9.087238310518

 Numeric. integr. density =       10.000001096731

     Total iterative time =      0.4s



                       DFT Final Molecular Orbital Analysis
                       ------------------------------------

 Vector    1  Occ=2.000000D+00  E=-1.913820D+01
              MO Center=  1.7D-03,  1.2D-01, -2.8D-19, r^2= 1.5D-02
   Bfn.  Coefficient  Atom+Function         Bfn.  Coefficient  Atom+Function  
  ----- ------------  ---------------      ----- ------------  ---------------
     1      0.992860  1 O  s                  2      0.026224  1 O  s          

 Vector    2  Occ=2.000000D+00  E=-9.978648D-01
              MO Center= -1.2D-03, -8.7D-02, -6.1D-17, r^2= 5.1D-01
   Bfn.  Coefficient  Atom+Function         Bfn.  Coefficient  Atom+Function  
  ----- ------------  ---------------      ----- ------------  ---------------
     2      0.469220  1 O  s                  6      0.439548  1 O  s          
     1     -0.209504  1 O  s                 16      0.139130  2 H  s          
    18      0.139128  3 H  s                  4     -0.127660  1 O  py         
     8     -0.060647  1 O  py         

 Vector    3  Occ=2.000000D+00  E=-5.171267D-01
              MO Center= -1.6D-03, -1.1D-01, -5.5D-18, r^2= 7.9D-01
   Bfn.  Coefficient  Atom+Function         Bfn.  Coefficient  Atom+Function  
  ----- ------------  ---------------      ----- ------------  ---------------
     3      0.517382  1 O  px                 7      0.269741  1 O  px         
    16      0.237433  2 H  s                 18     -0.237433  3 H  s          
    17      0.141958  2 H  s                 19     -0.141958  3 H  s          
    11     -0.071450  1 O  dxy        

 Vector    4  Occ=2.000000D+00  E=-3.722155D-01
              MO Center=  2.8D-03,  2.0D-01,  2.3D-16, r^2= 7.0D-01
   Bfn.  Coefficient  Atom+Function         Bfn.  Coefficient  Atom+Function  
  ----- ------------  ---------------      ----- ------------  ---------------
     4      0.551762  1 O  py                 6      0.410406  1 O  s          
     8      0.372110  1 O  py                 2      0.177248  1 O  s          
    16     -0.143735  2 H  s                 18     -0.143736  3 H  s          
    17     -0.114287  2 H  s                 19     -0.114288  3 H  s          
     1     -0.088093  1 O  s                 13     -0.052407  1 O  dyy        

 Vector    5  Occ=2.000000D+00  E=-2.911921D-01
              MO Center=  1.4D-03,  1.0D-01, -1.6D-16, r^2= 6.0D-01
   Bfn.  Coefficient  Atom+Function         Bfn.  Coefficient  Atom+Function  
  ----- ------------  ---------------      ----- ------------  ---------------
     5      0.644584  1 O  pz                 9      0.506042  1 O  pz         
    14     -0.061365  1 O  dyz        

 Vector    6  Occ=0.000000D+00  E= 6.258839D-02
              MO Center= -8.9D-03, -6.2D-01, -5.1D-18, r^2= 2.4D+00
   Bfn.  Coefficient  Atom+Function         Bfn.  Coefficient  Atom+Function  
  ----- ------------  ---------------      ----- ------------  ---------------
     6      1.257698  1 O  s                 17     -0.968994  2 H  s          
    19     -0.969011  3 H  s                  8     -0.477411  1 O  py         
     4     -0.280664  1 O  py                 2      0.119310  1 O  s          
     1     -0.100642  1 O  s                 16     -0.096298  2 H  s          
    18     -0.096302  3 H  s                 15     -0.058035  1 O  dzz        

 Vector    7  Occ=0.000000D+00  E= 1.481042D-01
              MO Center= -8.1D-03, -5.7D-01,  1.4D-18, r^2= 2.5D+00
   Bfn.  Coefficient  Atom+Function         Bfn.  Coefficient  Atom+Function  
  ----- ------------  ---------------      ----- ------------  ---------------
    17      1.277671  2 H  s                 19     -1.277646  3 H  s          
     7     -0.758704  1 O  px                 3     -0.413431  1 O  px         
    16      0.107367  2 H  s                 18     -0.107367  3 H  s          
    11      0.031913  1 O  dxy        

 Vector    8  Occ=0.000000D+00  E= 7.724522D-01
              MO Center= -2.2D-03, -1.5D-01, -1.8D-17, r^2= 1.6D+00
   Bfn.  Coefficient  Atom+Function         Bfn.  Coefficient  Atom+Function  
  ----- ------------  ---------------      ----- ------------  ---------------
    16      0.840193  2 H  s                 18     -0.840227  3 H  s          
    17     -0.655432  2 H  s                 19      0.655467  3 H  s          
     7     -0.430237  1 O  px                11     -0.339404  1 O  dxy        
     3     -0.172266  1 O  px         

 Vector    9  Occ=0.000000D+00  E= 8.608776D-01
              MO Center= -3.0D-03, -2.1D-01, -3.3D-15, r^2= 1.3D+00
   Bfn.  Coefficient  Atom+Function         Bfn.  Coefficient  Atom+Function  
  ----- ------------  ---------------      ----- ------------  ---------------
    16      0.711974  2 H  s                 18      0.711936  3 H  s          
     4      0.707494  1 O  py                17     -0.552250  2 H  s          
    19     -0.552235  3 H  s                  8     -0.382848  1 O  py         
    10      0.153426  1 O  dxx                2     -0.135825  1 O  s          
     6      0.135903  1 O  s                 15     -0.119390  1 O  dzz        

 Vector   10  Occ=0.000000D+00  E= 8.907753D-01
              MO Center=  1.7D-03,  1.2D-01, -6.5D-15, r^2= 1.1D+00
   Bfn.  Coefficient  Atom+Function         Bfn.  Coefficient  Atom+Function  
  ----- ------------  ---------------      ----- ------------  ---------------
     9     -1.038626  1 O  pz                 5      0.959431  1 O  pz         
    14      0.028412  1 O  dyz        

 Vector   11  Occ=0.000000D+00  E= 8.950808D-01
              MO Center=  4.6D-03,  3.2D-01,  8.2D-15, r^2= 1.4D+00
   Bfn.  Coefficient  Atom+Function         Bfn.  Coefficient  Atom+Function  
  ----- ------------  ---------------      ----- ------------  ---------------
     6      1.409924  1 O  s                  2     -0.835986  1 O  s          
     8      0.827603  1 O  py                 4     -0.558649  1 O  py         
    16      0.467511  2 H  s                 18      0.467503  3 H  s          
    17     -0.373207  2 H  s                 19     -0.373212  3 H  s          
    15     -0.327403  1 O  dzz               13     -0.276879  1 O  dyy        

 Vector   12  Occ=0.000000D+00  E= 1.065773D+00
              MO Center=  1.4D-03,  1.0D-01,  1.6D-17, r^2= 1.5D+00
   Bfn.  Coefficient  Atom+Function         Bfn.  Coefficient  Atom+Function  
  ----- ------------  ---------------      ----- ------------  ---------------
     7      1.627942  1 O  px                 3     -0.989111  1 O  px         
    17     -0.926470  2 H  s                 19      0.926459  3 H  s          
    11      0.027818  1 O  dxy        

 Vector   13  Occ=0.000000D+00  E= 1.193419D+00
              MO Center= -5.2D-03, -3.7D-01,  1.7D-15, r^2= 1.4D+00
   Bfn.  Coefficient  Atom+Function         Bfn.  Coefficient  Atom+Function  
  ----- ------------  ---------------      ----- ------------  ---------------
     6      3.596594  1 O  s                  2     -1.457473  1 O  s          
     8     -1.105471  1 O  py                17     -0.773152  2 H  s          
    19     -0.773135  3 H  s                 10     -0.657463  1 O  dxx        
     4      0.402542  1 O  py                13     -0.393328  1 O  dyy        
    16     -0.352065  2 H  s                 18     -0.352067  3 H  s          

 Vector   14  Occ=0.000000D+00  E= 1.729115D+00
              MO Center=  2.4D-03,  1.7D-01,  5.8D-17, r^2= 6.2D-01
   Bfn.  Coefficient  Atom+Function         Bfn.  Coefficient  Atom+Function  
  ----- ------------  ---------------      ----- ------------  ---------------
    13      1.006636  1 O  dyy               10     -0.595533  1 O  dxx        
    15     -0.343985  1 O  dzz                6     -0.252390  1 O  s          
     8      0.143533  1 O  py                 2      0.090115  1 O  s          
    16      0.081722  2 H  s                 18      0.081722  3 H  s          
    11      0.045795  1 O  dxy               17      0.042255  2 H  s          

 Vector   15  Occ=0.000000D+00  E= 1.746378D+00
              MO Center=  1.7D-03,  1.2D-01, -6.4D-17, r^2= 6.1D-01
   Bfn.  Coefficient  Atom+Function         Bfn.  Coefficient  Atom+Function  
  ----- ------------  ---------------      ----- ------------  ---------------
    12      1.731874  1 O  dxz        

 Vector   16  Occ=0.000000D+00  E= 1.779812D+00
              MO Center=  2.1D-03,  1.5D-01, -4.8D-18, r^2= 6.1D-01
   Bfn.  Coefficient  Atom+Function         Bfn.  Coefficient  Atom+Function  
  ----- ------------  ---------------      ----- ------------  ---------------
    14      1.730553  1 O  dyz                9      0.034996  1 O  pz         

 Vector   17  Occ=0.000000D+00  E= 2.280522D+00
              MO Center=  3.4D-05,  3.3D-03,  2.0D-17, r^2= 8.3D-01
   Bfn.  Coefficient  Atom+Function         Bfn.  Coefficient  Atom+Function  
  ----- ------------  ---------------      ----- ------------  ---------------
     6      1.538571  1 O  s                 15     -1.131098  1 O  dzz        
    16     -0.812228  2 H  s                 18     -0.812244  3 H  s          
     8     -0.738874  1 O  py                10      0.736133  1 O  dxx        
     2     -0.514829  1 O  s                 17     -0.141357  2 H  s          
    19     -0.141351  3 H  s                 13      0.070749  1 O  dyy        

 Vector   18  Occ=0.000000D+00  E= 2.577037D+00
              MO Center=  9.1D-04,  6.4D-02, -8.8D-18, r^2= 8.6D-01
   Bfn.  Coefficient  Atom+Function         Bfn.  Coefficient  Atom+Function  
  ----- ------------  ---------------      ----- ------------  ---------------
    11      2.202340  1 O  dxy               16      0.923413  2 H  s          
    18     -0.923381  3 H  s                  7     -0.842274  1 O  px         
    17     -0.050199  2 H  s                 19      0.050206  3 H  s          
     3      0.036981  1 O  px                10      0.031465  1 O  dxx        
    13     -0.031475  1 O  dyy        

 Vector   19  Occ=0.000000D+00  E= 3.551880D+00
              MO Center=  1.7D-03,  1.2D-01,  3.4D-17, r^2= 1.0D+00
   Bfn.  Coefficient  Atom+Function         Bfn.  Coefficient  Atom+Function  
  ----- ------------  ---------------      ----- ------------  ---------------
     6      3.689424  1 O  s                 15     -1.578741  1 O  dzz        
    13     -1.549616  1 O  dyy               10     -1.526094  1 O  dxx        
    17     -0.554507  2 H  s                 19     -0.554501  3 H  s          
     1     -0.467944  1 O  s                  8     -0.333925  1 O  py         
     2      0.286728  1 O  s                  4      0.116586  1 O  py         


     ---------------------------------------------
      Total Density - Mulliken Population Analysis
     ---------------------------------------------

    Atom       Charge   Shell Charges
 -----------   ------   -------------------------------------------------------
    1 O    8     8.77   1.99  0.90  2.92  0.98  1.94  0.04
    2 H    1     0.61   0.48  0.14
    3 H    1     0.61   0.48  0.14

     -------------------------------------------
      Total Density - Lowdin Population Analysis
     -------------------------------------------

    Atom       Charge   Shell Charges
 -----------   ------   -------------------------------------------------------
    1 O    8     8.67   1.98  0.72  2.78  0.50  2.13  0.57
    2 H    1     0.66   0.44  0.22
    3 H    1     0.66   0.44  0.22
 Line search: 
     step= 1.00 grad=-6.8D-08 hess= 5.0D-08 energy=    -76.408955 mode=accept  
 new step= 1.00                   predicted energy=    -76.408955

          --------
          Step   3
          --------

                                 NWChem DFT Module
                                 -----------------


                                     cpd01055




  The DFT is already converged 

         Total DFT energy =    -76.408954526583



                         DFT ENERGY GRADIENTS

    atom               coordinates                        gradient
                 x          y          z           x          y          z
   1 O       0.003239   0.227998  -0.000000    0.000004   0.000033   0.000000
   2 H       1.426133  -0.923878   0.000000    0.000027  -0.000015  -0.000000
   3 H      -1.451992  -0.882759   0.000000   -0.000031  -0.000018   0.000000


  Step       Energy      Delta E   Gmax     Grms     Xrms     Xmax   Walltime
  ---- ---------------- -------- -------- -------- -------- -------- --------
@    3     -76.40895453 -1.8D-08  0.00003  0.00002  0.00012  0.00024      5.7
                                     ok       ok       ok       ok  


      ----------------------
      Optimization converged
      ----------------------


  Step       Energy      Delta E   Gmax     Grms     Xrms     Xmax   Walltime
  ---- ---------------- -------- -------- -------- -------- -------- --------
@    3     -76.40895453 -1.8D-08  0.00003  0.00002  0.00012  0.00024      5.7
                                     ok       ok       ok       ok  



                         Geometry "geometry" -> "geometry"
                         ---------------------------------

 Output coordinates in angstroms (scale by  1.889725989 to convert to a.u.)

  No.       Tag          Charge          X              Y              Z
 ---- ---------------- ---------- -------------- -------------- --------------
    1 O                    8.0000     0.00171408     0.12065132    -0.00000000
    2 H                    1.0000     0.75467728    -0.48889528     0.00000000
    3 H                    1.0000    -0.76836136    -0.46713604     0.00000000

      Atomic Mass 
      ----------- 

      O                 15.994910
      H                  1.007825


 Effective nuclear repulsion energy (a.u.)       9.0872383105

            Nuclear Dipole moment (a.u.) 
            ----------------------------
        X                 Y               Z
 ---------------- ---------------- ----------------
     0.0000539163     0.0173462575    -0.0000000000



                                NWChem Input Module
                                -------------------


                              NWChem Property Module
                              ----------------------


                                 NWChem DFT Module
                                 -----------------


                                     cpd01055



  Caching 1-el integrals 
   Time after variat. SCF:      5.9

     ---------------------------------------------
      Total Density - Mulliken Population Analysis
     ---------------------------------------------

    Atom       Charge   Shell Charges
 -----------   ------   -------------------------------------------------------
    1 O    8     8.77   1.99  0.90  2.92  0.98  1.94  0.04
    2 H    1     0.61   0.48  0.14
    3 H    1     0.61   0.48  0.14
   Time prior to 1st pass:      5.9


         Total DFT energy =      -76.408953971931
      One electron energy =     -122.935078246828
           Coulomb energy =       46.782100977375
    Exchange-Corr. energy =       -9.343215012995
 Nuclear repulsion energy =        9.087238310518

 Numeric. integr. density =       10.000000399795

     Total iterative time =      0.5s



                       DFT Final Molecular Orbital Analysis
                       ------------------------------------

 Vector    1  Occ=2.000000D+00  E=-1.913818D+01
              MO Center=  1.7D-03,  1.2D-01, -9.0D-19, r^2= 1.5D-02
   Bfn.  Coefficient  Atom+Function         Bfn.  Coefficient  Atom+Function  
  ----- ------------  ---------------      ----- ------------  ---------------
     1      0.992860  1 O  s                  2      0.026224  1 O  s          

 Vector    2  Occ=2.000000D+00  E=-9.978614D-01
              MO Center= -1.2D-03, -8.7D-02, -3.0D-15, r^2= 5.1D-01
   Bfn.  Coefficient  Atom+Function         Bfn.  Coefficient  Atom+Function  
  ----- ------------  ---------------      ----- ------------  ---------------
     2      0.469216  1 O  s                  6      0.439547  1 O  s          
     1     -0.209504  1 O  s                 16      0.139131  2 H  s          
    18      0.139129  3 H  s                  4     -0.127663  1 O  py         
     8     -0.060650  1 O  py         

 Vector    3  Occ=2.000000D+00  E=-5.171241D-01
              MO Center= -1.6D-03, -1.1D-01, -3.7D-16, r^2= 7.9D-01
   Bfn.  Coefficient  Atom+Function         Bfn.  Coefficient  Atom+Function  
  ----- ------------  ---------------      ----- ------------  ---------------
     3      0.517376  1 O  px                 7      0.269741  1 O  px         
    16      0.237435  2 H  s                 18     -0.237435  3 H  s          
    17      0.141961  2 H  s                 19     -0.141962  3 H  s          
    11     -0.071452  1 O  dxy        

 Vector    4  Occ=2.000000D+00  E=-3.722083D-01
              MO Center=  2.8D-03,  2.0D-01, -1.1D-14, r^2= 7.0D-01
   Bfn.  Coefficient  Atom+Function         Bfn.  Coefficient  Atom+Function  
  ----- ------------  ---------------      ----- ------------  ---------------
     4      0.551755  1 O  py                 6      0.410417  1 O  s          
     8      0.372110  1 O  py                 2      0.177251  1 O  s          
    16     -0.143736  2 H  s                 18     -0.143737  3 H  s          
    17     -0.114292  2 H  s                 19     -0.114293  3 H  s          
     1     -0.088095  1 O  s                 13     -0.052409  1 O  dyy        

 Vector    5  Occ=2.000000D+00  E=-2.911857D-01
              MO Center=  1.4D-03,  1.0D-01,  6.6D-15, r^2= 6.0D-01
   Bfn.  Coefficient  Atom+Function         Bfn.  Coefficient  Atom+Function  
  ----- ------------  ---------------      ----- ------------  ---------------
     5      0.644581  1 O  pz                 9      0.506045  1 O  pz         
    14     -0.061367  1 O  dyz        

 Vector    6  Occ=0.000000D+00  E= 6.258802D-02
              MO Center= -8.9D-03, -6.2D-01, -1.8D-15, r^2= 2.4D+00
   Bfn.  Coefficient  Atom+Function         Bfn.  Coefficient  Atom+Function  
  ----- ------------  ---------------      ----- ------------  ---------------
     6      1.257699  1 O  s                 17     -0.968995  2 H  s          
    19     -0.969011  3 H  s                  8     -0.477416  1 O  py         
     4     -0.280667  1 O  py                 2      0.119308  1 O  s          
     1     -0.100642  1 O  s                 16     -0.096297  2 H  s          
    18     -0.096301  3 H  s                 15     -0.058035  1 O  dzz        

 Vector    7  Occ=0.000000D+00  E= 1.481050D-01
              MO Center= -8.1D-03, -5.7D-01, -4.7D-17, r^2= 2.5D+00
   Bfn.  Coefficient  Atom+Function         Bfn.  Coefficient  Atom+Function  
  ----- ------------  ---------------      ----- ------------  ---------------
    17      1.277675  2 H  s                 19     -1.277650  3 H  s          
     7     -0.758711  1 O  px                 3     -0.413431  1 O  px         
    16      0.107365  2 H  s                 18     -0.107365  3 H  s          
    11      0.031915  1 O  dxy        

 Vector    8  Occ=0.000000D+00  E= 7.724513D-01
              MO Center= -2.2D-03, -1.5D-01, -5.6D-16, r^2= 1.6D+00
   Bfn.  Coefficient  Atom+Function         Bfn.  Coefficient  Atom+Function  
  ----- ------------  ---------------      ----- ------------  ---------------
    16      0.840194  2 H  s                 18     -0.840228  3 H  s          
    17     -0.655429  2 H  s                 19      0.655463  3 H  s          
     7     -0.430242  1 O  px                11     -0.339401  1 O  dxy        
     3     -0.172267  1 O  px         

 Vector    9  Occ=0.000000D+00  E= 8.608789D-01
              MO Center= -3.0D-03, -2.1D-01, -1.0D-13, r^2= 1.3D+00
   Bfn.  Coefficient  Atom+Function         Bfn.  Coefficient  Atom+Function  
  ----- ------------  ---------------      ----- ------------  ---------------
    16      0.712027  2 H  s                 18      0.711989  3 H  s          
     4      0.707434  1 O  py                17     -0.552288  2 H  s          
    19     -0.552274  3 H  s                  8     -0.382751  1 O  py         
    10      0.153410  1 O  dxx                2     -0.135914  1 O  s          
     6      0.136048  1 O  s                 15     -0.119423  1 O  dzz        

 Vector   10  Occ=0.000000D+00  E= 8.907808D-01
              MO Center=  1.7D-03,  1.2D-01, -8.3D-13, r^2= 1.1D+00
   Bfn.  Coefficient  Atom+Function         Bfn.  Coefficient  Atom+Function  
  ----- ------------  ---------------      ----- ------------  ---------------
     9     -1.038624  1 O  pz                 5      0.959433  1 O  pz         
    14      0.028411  1 O  dyz        

 Vector   11  Occ=0.000000D+00  E= 8.950846D-01
              MO Center=  4.6D-03,  3.2D-01,  9.1D-13, r^2= 1.4D+00
   Bfn.  Coefficient  Atom+Function         Bfn.  Coefficient  Atom+Function  
  ----- ------------  ---------------      ----- ------------  ---------------
     6      1.409908  1 O  s                  2     -0.835969  1 O  s          
     8      0.827645  1 O  py                 4     -0.558729  1 O  py         
    16      0.467434  2 H  s                 18      0.467425  3 H  s          
    17     -0.373146  2 H  s                 19     -0.373151  3 H  s          
    15     -0.327390  1 O  dzz               13     -0.276882  1 O  dyy        

 Vector   12  Occ=0.000000D+00  E= 1.065778D+00
              MO Center=  1.4D-03,  1.0D-01, -9.7D-16, r^2= 1.5D+00
   Bfn.  Coefficient  Atom+Function         Bfn.  Coefficient  Atom+Function  
  ----- ------------  ---------------      ----- ------------  ---------------
     7      1.627938  1 O  px                 3     -0.989114  1 O  px         
    17     -0.926467  2 H  s                 19      0.926456  3 H  s          
    11      0.027818  1 O  dxy        

 Vector   13  Occ=0.000000D+00  E= 1.193420D+00
              MO Center= -5.2D-03, -3.7D-01,  2.3D-14, r^2= 1.4D+00
   Bfn.  Coefficient  Atom+Function         Bfn.  Coefficient  Atom+Function  
  ----- ------------  ---------------      ----- ------------  ---------------
     6      3.596598  1 O  s                  2     -1.457475  1 O  s          
     8     -1.105471  1 O  py                17     -0.773152  2 H  s          
    19     -0.773136  3 H  s                 10     -0.657464  1 O  dxx        
     4      0.402544  1 O  py                13     -0.393328  1 O  dyy        
    16     -0.352064  2 H  s                 18     -0.352066  3 H  s          

 Vector   14  Occ=0.000000D+00  E= 1.729117D+00
              MO Center=  2.4D-03,  1.7D-01,  4.0D-16, r^2= 6.2D-01
   Bfn.  Coefficient  Atom+Function         Bfn.  Coefficient  Atom+Function  
  ----- ------------  ---------------      ----- ------------  ---------------
    13      1.006636  1 O  dyy               10     -0.595533  1 O  dxx        
    15     -0.343984  1 O  dzz                6     -0.252394  1 O  s          
     8      0.143536  1 O  py                 2      0.090116  1 O  s          
    16      0.081723  2 H  s                 18      0.081724  3 H  s          
    11      0.045795  1 O  dxy               17      0.042256  2 H  s          

 Vector   15  Occ=0.000000D+00  E= 1.746382D+00
              MO Center=  1.7D-03,  1.2D-01,  1.7D-15, r^2= 6.1D-01
   Bfn.  Coefficient  Atom+Function         Bfn.  Coefficient  Atom+Function  
  ----- ------------  ---------------      ----- ------------  ---------------
    12      1.731874  1 O  dxz        

 Vector   16  Occ=0.000000D+00  E= 1.779816D+00
              MO Center=  2.1D-03,  1.5D-01,  7.5D-16, r^2= 6.1D-01
   Bfn.  Coefficient  Atom+Function         Bfn.  Coefficient  Atom+Function  
  ----- ------------  ---------------      ----- ------------  ---------------
    14      1.730553  1 O  dyz                9      0.034996  1 O  pz         

 Vector   17  Occ=0.000000D+00  E= 2.280525D+00
              MO Center=  3.4D-05,  3.3D-03,  1.3D-15, r^2= 8.3D-01
   Bfn.  Coefficient  Atom+Function         Bfn.  Coefficient  Atom+Function  
  ----- ------------  ---------------      ----- ------------  ---------------
     6      1.538565  1 O  s                 15     -1.131098  1 O  dzz        
    16     -0.812227  2 H  s                 18     -0.812242  3 H  s          
     8     -0.738871  1 O  py                10      0.736134  1 O  dxx        
     2     -0.514829  1 O  s                 17     -0.141356  2 H  s          
    19     -0.141350  3 H  s                 13      0.070752  1 O  dyy        

 Vector   18  Occ=0.000000D+00  E= 2.577039D+00
              MO Center=  9.1D-04,  6.4D-02,  1.4D-16, r^2= 8.6D-01
   Bfn.  Coefficient  Atom+Function         Bfn.  Coefficient  Atom+Function  
  ----- ------------  ---------------      ----- ------------  ---------------
    11      2.202341  1 O  dxy               16      0.923411  2 H  s          
    18     -0.923380  3 H  s                  7     -0.842273  1 O  px         
    17     -0.050199  2 H  s                 19      0.050206  3 H  s          
     3      0.036982  1 O  px                10      0.031465  1 O  dxx        
    13     -0.031475  1 O  dyy        

 Vector   19  Occ=0.000000D+00  E= 3.551888D+00
              MO Center=  1.7D-03,  1.2D-01,  6.3D-16, r^2= 1.0D+00
   Bfn.  Coefficient  Atom+Function         Bfn.  Coefficient  Atom+Function  
  ----- ------------  ---------------      ----- ------------  ---------------
     6      3.689421  1 O  s                 15     -1.578741  1 O  dzz        
    13     -1.549616  1 O  dyy               10     -1.526093  1 O  dxx        
    17     -0.554506  2 H  s                 19     -0.554500  3 H  s          
     1     -0.467944  1 O  s                  8     -0.333926  1 O  py         
     2      0.286730  1 O  s                  4      0.116586  1 O  py         


     ---------------------------------------------
      Total Density - Mulliken Population Analysis
     ---------------------------------------------

    Atom       Charge   Shell Charges
 -----------   ------   -------------------------------------------------------
    1 O    8     8.77   1.99  0.90  2.92  0.98  1.94  0.04
    2 H    1     0.61   0.48  0.14
    3 H    1     0.61   0.48  0.14

     -------------------------------------------
      Total Density - Lowdin Population Analysis
     -------------------------------------------

    Atom       Charge   Shell Charges
 -----------   ------   -------------------------------------------------------
    1 O    8     8.67   1.98  0.72  2.78  0.50  2.13  0.57
    2 H    1     0.66   0.44  0.22
    3 H    1     0.66   0.44  0.22

          -------------
          Dipole Moment
          -------------

 Center of charge (in au) is the expansion point
         X =       0.0000054 Y =       0.0017346 Z =      -0.0000000

   Dipole moment        0.8243649742 A.U.
             DMX       -0.0117786537 DMXEFC        0.0000000000
             DMY       -0.8242808223 DMYEFC        0.0000000000
             DMZ        0.0000000000 DMZEFC        0.0000000000
   -EFC- dipole         0.0000000000 A.U.
   Total dipole         0.8243649742 A.U.

   Dipole moment        2.0953425991 Debye(s)
             DMX       -0.0299385776 DMXEFC        0.0000000000
             DMY       -2.0951287047 DMYEFC        0.0000000000
             DMZ        0.0000000000 DMZEFC        0.0000000000
   -EFC- dipole         0.0000000000 DEBYE(S)
   Total dipole         2.0953425991 DEBYE(S)

 1 a.u. = 2.541766 Debyes 


                                NWChem Input Module
                                -------------------




                                     CITATION
                                     --------
                Please cite the following reference when publishing
                           results obtained with NWChem:

                 M. Valiev, E.J. Bylaska, N. Govind, K. Kowalski,
              T.P. Straatsma, H.J.J. van Dam, D. Wang, J. Nieplocha,
                        E. Apra, T.L. Windus, W.A. de Jong
                 "NWChem: a comprehensive and scalable open-source
                  solution for large scale molecular simulations"
                      Comput. Phys. Commun. 181, 1477 (2010)
                           doi:10.1016/j.cpc.2010.04.018

                                      AUTHORS
                                      -------
          E. Apra, E. J. Bylaska, W. A. de Jong, N. Govind, K. Kowalski,
       T. P. Straatsma, M. Valiev, H. J. J. van Dam, D. Wang, T. L. Windus,
        J. Hammond, J. Autschbach, K. Bhaskaran-Nair, J. Brabec, K. Lopata,
    S. A. Fischer, S. Krishnamoorthy, M. Jacquelin, W. Ma, M. Klemm, O. Villa,
      Y. Chen, V. Anisimov, F. Aquino, S. Hirata, M. T. Hackler, V. Konjkov,
            D. Mejia-Rodriguez, T. Risthaus, M. Malagoli, A. Marenich,
   A. Otero-de-la-Roza, J. Mullin, P. Nichols, R. Peverati, J. Pittner, Y. Zhao,
        P.-D. Fan, A. Fonari, M. J. Williamson, R. J. Harrison, J. R. Rehr,
      M. Dupuis, D. Silverstein, D. M. A. Smith, J. Nieplocha, V. Tipparaju,
    M. Krishnan, B. E. Van Kuiken, A. Vazquez-Mayagoitia, L. Jensen, M. Swart,
      Q. Wu, T. Van Voorhis, A. A. Auer, M. Nooijen, L. D. Crosby, E. Brown,
      G. Cisneros, G. I. Fann, H. Fruchtl, J. Garza, K. Hirao, R. A. Kendall,
      J. A. Nichols, K. Tsemekhman, K. Wolinski, J. Anchell, D. E. Bernholdt,
      P. Borowski, T. Clark, D. Clerc, H. Dachsel, M. J. O. Deegan, K. Dyall,
    D. Elwood, E. Glendening, M. Gutowski, A. C. Hess, J. Jaffe, B. G. Johnson,
     J. Ju, R. Kobayashi, R. Kutteh, Z. Lin, R. Littlefield, X. Long, B. Meng,
      T. Nakajima, S. Niu, L. Pollack, M. Rosing, K. Glaesemann, G. Sandrone,
      M. Stave, H. Taylor, G. Thomas, J. H. van Lenthe, A. T. Wong, Z. Zhang.

 Total times  cpu:        3.3s     wall:        6.9s
