--------------------------------------------------------------------------
[[4814,1],1]: A high-performance Open MPI point-to-point messaging module
was unable to find any relevant network interfaces:

Module: OpenFabrics (openib)
  Host: 2274251cca31

Another transport will be used instead, although this may result in
lower performance.
--------------------------------------------------------------------------
 argument  1 = cpd00016.nw



============================== echo of input deck ==============================
title "cpd00016"
start cpd00016

memory global 1600 mb heap 100 mb stack 600 mb

permanent_dir /kb/module/work/tmp/simulation/cpd00016/dft
#scratch_dir /scratch

echo
print low

charge 0
geometry noautoz noautosym
load /kb/module/work/tmp/simulation/cpd00016/dft/cpd00016.xyz
end
basis
* library 6-31G*
end

driver
 maxiter 50
xyz cpd00016_geom
end

set lindep:n_dep 0

dft
  maxiter 100
  xc b3lyp
  mulliken
  print "mulliken ao"
  print "final vectors analysis"
end

task dft optimize ignore
property
 dipole
end

task dft property
================================================================================


                                         
                                         


              Northwest Computational Chemistry Package (NWChem) 6.8
              ------------------------------------------------------


                    Environmental Molecular Sciences Laboratory
                       Pacific Northwest National Laboratory
                                Richland, WA 99352

                              Copyright (c) 1994-2017
                       Pacific Northwest National Laboratory
                            Battelle Memorial Institute

             NWChem is an open-source computational chemistry package
                        distributed under the terms of the
                      Educational Community License (ECL) 2.0
             A copy of the license is included with this distribution
                              in the LICENSE.TXT file

                                  ACKNOWLEDGMENT
                                  --------------

            This software and its documentation were developed at the
            EMSL at Pacific Northwest National Laboratory, a multiprogram
            national laboratory, operated for the U.S. Department of Energy
            by Battelle under Contract Number DE-AC05-76RL01830. Support
            for this work was provided by the Department of Energy Office
            of Biological and Environmental Research, Office of Basic
            Energy Sciences, and the Office of Advanced Scientific Computing.


           Job information
           ---------------

    hostname        = 2274251cca31
    program         = nwchem
    date            = Sun Mar  8 23:28:31 2020

    compiled        = Sat_Mar_07_21:45:49_2020
    source          = /codes/nwchem-6.8.1
    nwchem branch   = 6.8.1
    nwchem revision = v6.8-133-ge032219
    ga revision     = 5.6.5
    use scalapack   = F
    input           = cpd00016.nw
    prefix          = cpd00016.
    data base       = /kb/module/work/tmp/simulation/cpd00016/dft/cpd00016.db
    status          = startup
    nproc           =        2
    time left       =     -1s



           Memory information
           ------------------

    heap     =   13107196 doubles =    100.0 Mbytes
    stack    =   78643201 doubles =    600.0 Mbytes
    global   =  209715200 doubles =   1600.0 Mbytes (distinct from heap & stack)
    total    =  301465597 doubles =   2300.0 Mbytes
    verify   = yes
    hardfail = no 


           Directory information
           ---------------------

  0 permanent = /kb/module/work/tmp/simulation/cpd00016/dft
  0 scratch   = .




                                NWChem Input Module
                                -------------------


                                     cpd00016
                                     --------

 Scaling coordinates for geometry "geometry" by  1.889725989
 (inverse scale =  0.529177249)



                             Geometry "geometry" -> ""
                             -------------------------

 Output coordinates in angstroms (scale by  1.889725989 to convert to a.u.)

  No.       Tag          Charge          X              Y              Z
 ---- ---------------- ---------- -------------- -------------- --------------
    1 O                    8.0000    -1.40470000    -0.02820000     0.00000000
    2 C                    6.0000     0.00000000     0.00000000     0.00000000
    3 O                    8.0000     1.40470000     0.02820000     0.00000000

      Atomic Mass 
      ----------- 

      O                 15.994910
      C                 12.000000


 Effective nuclear repulsion energy (a.u.)      48.2103243678

            Nuclear Dipole moment (a.u.) 
            ----------------------------
        X                 Y               Z
 ---------------- ---------------- ----------------
     0.0000000000     0.0000000000     0.0000000000


            XYZ format geometry
            -------------------
     3
 geometry
 O                    -1.40470000    -0.02820000     0.00000000
 C                     0.00000000     0.00000000     0.00000000
 O                     1.40470000     0.02820000     0.00000000

 ==============================================================================
                                internuclear distances
 ------------------------------------------------------------------------------
       center one      |      center two      | atomic units |  angstroms
 ------------------------------------------------------------------------------
    2 C                |   1 O                |     2.65503  |     1.40498
    3 O                |   2 C                |     2.65503  |     1.40498
 ------------------------------------------------------------------------------
                         number of included internuclear distances:          2
 ==============================================================================



 ==============================================================================
                                 internuclear angles
 ------------------------------------------------------------------------------
        center 1       |       center 2       |       center 3       |  degrees
 ------------------------------------------------------------------------------
    1 O                |   2 C                |   3 O                |   180.00
 ------------------------------------------------------------------------------
                            number of included internuclear angles:          1
 ==============================================================================



  library name resolved from: environment
  library file name is: </codes/nwchem-6.8.1/data/libraries/>
  


 Summary of "ao basis" -> "" (cartesian)
 ------------------------------------------------------------------------------
       Tag                 Description            Shells   Functions and Types
 ---------------- ------------------------------  ------  ---------------------
 *                           6-31G*                   on all atoms 




                           NWChem Geometry Optimization
                           ----------------------------




                                     cpd00016


 maximum gradient threshold         (gmax) =   0.000450
 rms gradient threshold             (grms) =   0.000300
 maximum cartesian step threshold   (xmax) =   0.001800
 rms cartesian step threshold       (xrms) =   0.001200
 fixed trust radius                (trust) =   0.300000
 maximum step size to saddle      (sadstp) =   0.100000
 energy precision                  (eprec) =   5.0D-06
 maximum number of steps          (nptopt) =   50
 initial hessian option           (inhess) =    0
 line search option               (linopt) =    1
 hessian update option            (modupd) =    1
 saddle point option              (modsad) =    0
 initial eigen-mode to follow     (moddir) =    0
 initial variable to follow       (vardir) =    0
 follow first negative mode     (firstneg) =    T
 apply conjugacy                    (opcg) =    F
 source of zmatrix                         =           


          -------------------
          Energy Minimization
          -------------------


 Using diagonal initial Hessian 

          --------
          Step   0
          --------

                                 NWChem DFT Module
                                 -----------------


                                     cpd00016


                      Basis "ao basis" -> "ao basis" (cartesian)
                      -----
  O (Oxygen)
  ----------
            Exponent  Coefficients 
       -------------- ---------------------------------------------------------
  1 S  5.48467170E+03  0.001831
  1 S  8.25234950E+02  0.013950
  1 S  1.88046960E+02  0.068445
  1 S  5.29645000E+01  0.232714
  1 S  1.68975700E+01  0.470193
  1 S  5.79963530E+00  0.358521

  2 S  1.55396160E+01 -0.110778
  2 S  3.59993360E+00 -0.148026
  2 S  1.01376180E+00  1.130767

  3 P  1.55396160E+01  0.070874
  3 P  3.59993360E+00  0.339753
  3 P  1.01376180E+00  0.727159

  4 S  2.70005800E-01  1.000000

  5 P  2.70005800E-01  1.000000

  6 D  8.00000000E-01  1.000000

  C (Carbon)
  ----------
            Exponent  Coefficients 
       -------------- ---------------------------------------------------------
  1 S  3.04752490E+03  0.001835
  1 S  4.57369510E+02  0.014037
  1 S  1.03948690E+02  0.068843
  1 S  2.92101550E+01  0.232184
  1 S  9.28666300E+00  0.467941
  1 S  3.16392700E+00  0.362312

  2 S  7.86827240E+00 -0.119332
  2 S  1.88128850E+00 -0.160854
  2 S  5.44249300E-01  1.143456

  3 P  7.86827240E+00  0.068999
  3 P  1.88128850E+00  0.316424
  3 P  5.44249300E-01  0.744308

  4 S  1.68714400E-01  1.000000

  5 P  1.68714400E-01  1.000000

  6 D  8.00000000E-01  1.000000



 Summary of "ao basis" -> "ao basis" (cartesian)
 ------------------------------------------------------------------------------
       Tag                 Description            Shells   Functions and Types
 ---------------- ------------------------------  ------  ---------------------
 O                           6-31G*                  6       15   3s2p1d
 C                           6-31G*                  6       15   3s2p1d



  Caching 1-el integrals 
   Time after variat. SCF:      0.5

     ---------------------------------------------
      Total Density - Mulliken Population Analysis
     ---------------------------------------------

    Atom       Charge   Shell Charges
 -----------   ------   -------------------------------------------------------
    1 O    8     8.86   2.00  0.97  2.88  0.98  2.02  0.03
    2 C    6     4.29   2.00  0.64  0.86  0.44  0.31  0.05
    3 O    8     8.86   2.00  0.97  2.88  0.98  2.02  0.03
   Time prior to 1st pass:      0.5
  Resetting Diis


         Total DFT energy =     -188.446123668380
      One electron energy =     -352.806899204755
           Coulomb energy =      138.312163677223
    Exchange-Corr. energy =      -22.161712508637
 Nuclear repulsion energy =       48.210324367789

 Numeric. integr. density =       21.999999838412

     Total iterative time =      1.3s



                       DFT Final Molecular Orbital Analysis
                       ------------------------------------

 Vector    1  Occ=2.000000D+00  E=-1.927357D+01
              MO Center=  1.1D+00,  2.3D-02, -5.9D-13, r^2= 6.7D-01
   Bfn.  Coefficient  Atom+Function         Bfn.  Coefficient  Atom+Function  
  ----- ------------  ---------------      ----- ------------  ---------------
    31      0.946272  3 O  s                  1     -0.300503  1 O  s          

 Vector    2  Occ=2.000000D+00  E=-1.927354D+01
              MO Center= -1.1D+00, -2.3D-02, -4.6D-12, r^2= 6.7D-01
   Bfn.  Coefficient  Atom+Function         Bfn.  Coefficient  Atom+Function  
  ----- ------------  ---------------      ----- ------------  ---------------
     1      0.946335  1 O  s                 31      0.300704  3 O  s          

 Vector    3  Occ=2.000000D+00  E=-1.045142D+01
              MO Center=  2.0D-09,  4.1D-11, -8.1D-14, r^2= 2.8D-02
   Bfn.  Coefficient  Atom+Function         Bfn.  Coefficient  Atom+Function  
  ----- ------------  ---------------      ----- ------------  ---------------
    16      0.993065  2 C  s                 17      0.044989  2 C  s          

 Vector    4  Occ=2.000000D+00  E=-1.061516D+00
              MO Center=  3.2D-04,  6.3D-06,  4.0D-10, r^2= 1.7D+00
   Bfn.  Coefficient  Atom+Function         Bfn.  Coefficient  Atom+Function  
  ----- ------------  ---------------      ----- ------------  ---------------
     2      0.319629  1 O  s                 32      0.319727  3 O  s          
     6      0.294714  1 O  s                 36      0.294825  3 O  s          
    17      0.245857  2 C  s                  1     -0.140061  1 O  s          
    31     -0.140105  3 O  s                 16     -0.116556  2 C  s          
     3      0.090089  1 O  px                33     -0.090113  3 O  px         

 Vector    5  Occ=2.000000D+00  E=-1.028927D+00
              MO Center= -3.1D-04, -6.2D-06,  5.0D-10, r^2= 1.9D+00
   Bfn.  Coefficient  Atom+Function         Bfn.  Coefficient  Atom+Function  
  ----- ------------  ---------------      ----- ------------  ---------------
     6      0.386645  1 O  s                 36     -0.386563  3 O  s          
     2      0.341070  1 O  s                 32     -0.340983  3 O  s          
    18     -0.224270  2 C  px                 1     -0.154156  1 O  s          
    31      0.154117  3 O  s                  3      0.084145  1 O  px         
    33      0.084119  3 O  px                22      0.064955  2 C  px         

 Vector    6  Occ=2.000000D+00  E=-5.999617D-01
              MO Center=  9.6D-05,  1.9D-06,  3.2D-10, r^2= 2.3D+00
   Bfn.  Coefficient  Atom+Function         Bfn.  Coefficient  Atom+Function  
  ----- ------------  ---------------      ----- ------------  ---------------
    17      0.394511  2 C  s                 21      0.331845  2 C  s          
     6     -0.320657  1 O  s                 36     -0.320672  3 O  s          
     3      0.267167  1 O  px                33     -0.267200  3 O  px         
     2     -0.207390  1 O  s                 32     -0.207399  3 O  s          
    16     -0.162412  2 C  s                  7      0.129660  1 O  px         

 Vector    7  Occ=2.000000D+00  E=-5.006113D-01
              MO Center= -9.2D-05, -1.8D-06,  4.5D-10, r^2= 2.6D+00
   Bfn.  Coefficient  Atom+Function         Bfn.  Coefficient  Atom+Function  
  ----- ------------  ---------------      ----- ------------  ---------------
     3      0.384842  1 O  px                18     -0.385407  2 C  px         
    33      0.384827  3 O  px                 6     -0.220391  1 O  s          
    36      0.220359  3 O  s                  7      0.211036  1 O  px         
    37      0.211028  3 O  px                 2     -0.133632  1 O  s          
    32      0.133614  3 O  s                  1      0.060498  1 O  s          

 Vector    8  Occ=2.000000D+00  E=-4.464760D-01
              MO Center=  1.1D-04,  2.2D-06, -3.7D-10, r^2= 1.9D+00
   Bfn.  Coefficient  Atom+Function         Bfn.  Coefficient  Atom+Function  
  ----- ------------  ---------------      ----- ------------  ---------------
    20      0.369594  2 C  pz                 5      0.361571  1 O  pz         
    35      0.361619  3 O  pz                 9      0.218719  1 O  pz         
    39      0.218749  3 O  pz                24      0.199366  2 C  pz         
    19      0.037862  2 C  py                12      0.037657  1 O  dxz        
    42     -0.037661  3 O  dxz                4      0.037040  1 O  py         

 Vector    9  Occ=2.000000D+00  E=-4.464760D-01
              MO Center=  1.1D-04,  2.2D-06,  3.0D-11, r^2= 1.9D+00
   Bfn.  Coefficient  Atom+Function         Bfn.  Coefficient  Atom+Function  
  ----- ------------  ---------------      ----- ------------  ---------------
    19      0.369520  2 C  py                 4      0.361498  1 O  py         
    34      0.361546  3 O  py                 8      0.218675  1 O  py         
    38      0.218705  3 O  py                23      0.199326  2 C  py         
    20     -0.037870  2 C  pz                11      0.037635  1 O  dxy        
    41     -0.037638  3 O  dxy                5     -0.037048  1 O  pz         

 Vector   10  Occ=2.000000D+00  E=-3.607967D-01
              MO Center= -9.0D-05, -1.8D-06, -5.1D-10, r^2= 2.5D+00
   Bfn.  Coefficient  Atom+Function         Bfn.  Coefficient  Atom+Function  
  ----- ------------  ---------------      ----- ------------  ---------------
     4      0.427174  1 O  py                34     -0.427151  3 O  py         
     8      0.299510  1 O  py                38     -0.299495  3 O  py         
     5      0.203984  1 O  pz                35     -0.203973  3 O  pz         
     9      0.143022  1 O  pz                39     -0.143015  3 O  pz         
    26     -0.065840  2 C  dxy               27     -0.031453  2 C  dxz        

 Vector   11  Occ=2.000000D+00  E=-3.607967D-01
              MO Center= -9.0D-05, -1.8D-06, -4.2D-10, r^2= 2.5D+00
   Bfn.  Coefficient  Atom+Function         Bfn.  Coefficient  Atom+Function  
  ----- ------------  ---------------      ----- ------------  ---------------
     5      0.427260  1 O  pz                35     -0.427237  3 O  pz         
     9      0.299571  1 O  pz                39     -0.299555  3 O  pz         
     4     -0.203943  1 O  py                34      0.203932  3 O  py         
     8     -0.142993  1 O  py                38      0.142986  3 O  py         
    27     -0.065880  2 C  dxz               26      0.031434  2 C  dxy        

 Vector   12  Occ=0.000000D+00  E=-9.488508D-02
              MO Center= -1.8D-05, -3.6D-07,  3.0D-10, r^2= 1.6D+00
   Bfn.  Coefficient  Atom+Function         Bfn.  Coefficient  Atom+Function  
  ----- ------------  ---------------      ----- ------------  ---------------
    19      0.595268  2 C  py                23      0.436260  2 C  py         
     4     -0.340785  1 O  py                34     -0.340777  3 O  py         
     8     -0.282854  1 O  py                38     -0.282844  3 O  py         
    20      0.100798  2 C  pz                24      0.073873  2 C  pz         
     5     -0.057706  1 O  pz                35     -0.057704  3 O  pz         

 Vector   13  Occ=0.000000D+00  E=-9.488508D-02
              MO Center= -1.8D-05, -3.6D-07,  7.8D-10, r^2= 1.6D+00
   Bfn.  Coefficient  Atom+Function         Bfn.  Coefficient  Atom+Function  
  ----- ------------  ---------------      ----- ------------  ---------------
    20      0.595388  2 C  pz                24      0.436348  2 C  pz         
     5     -0.340854  1 O  pz                35     -0.340845  3 O  pz         
     9     -0.282911  1 O  pz                39     -0.282901  3 O  pz         
    19     -0.100778  2 C  py                23     -0.073858  2 C  py         
     4      0.057694  1 O  py                34      0.057693  3 O  py         

 Vector   14  Occ=0.000000D+00  E=-6.305240D-02
              MO Center=  1.0D-06,  1.9D-08, -1.3D-09, r^2= 1.9D+00
   Bfn.  Coefficient  Atom+Function         Bfn.  Coefficient  Atom+Function  
  ----- ------------  ---------------      ----- ------------  ---------------
    21      1.126266  2 C  s                  3     -0.417919  1 O  px         
    33      0.417921  3 O  px                 7     -0.412821  1 O  px         
    37      0.412823  3 O  px                 6     -0.330810  1 O  s          
    36     -0.330823  3 O  s                 17      0.267143  2 C  s          
    16     -0.146357  2 C  s                  2     -0.137953  1 O  s          

 Vector   15  Occ=0.000000D+00  E= 3.355011D-01
              MO Center= -7.7D-06, -1.5D-07, -3.1D-10, r^2= 2.4D+00
   Bfn.  Coefficient  Atom+Function         Bfn.  Coefficient  Atom+Function  
  ----- ------------  ---------------      ----- ------------  ---------------
    22      2.253503  2 C  px                 6      1.426256  1 O  s          
    36     -1.426242  3 O  s                  7      0.845049  1 O  px         
    37      0.845042  3 O  px                18      0.678719  2 C  px         
     3      0.238144  1 O  px                33      0.238139  3 O  px         
     2      0.207900  1 O  s                 32     -0.207902  3 O  s          

 Vector   16  Occ=0.000000D+00  E= 4.608132D-01
              MO Center=  5.6D-05,  1.1D-06, -1.7D-10, r^2= 2.3D+00
   Bfn.  Coefficient  Atom+Function         Bfn.  Coefficient  Atom+Function  
  ----- ------------  ---------------      ----- ------------  ---------------
    22      2.537923  2 C  px                 6      1.304650  1 O  s          
    36     -1.304656  3 O  s                 18     -0.848043  2 C  px         
     7      0.486389  1 O  px                37      0.486413  3 O  px         
     3     -0.285354  1 O  px                33     -0.285369  3 O  px         
    10      0.091967  1 O  dxx               40     -0.091981  3 O  dxx        

 Vector   17  Occ=0.000000D+00  E= 4.922802D-01
              MO Center=  2.5D-06,  5.2D-08, -6.6D-11, r^2= 2.0D+00
   Bfn.  Coefficient  Atom+Function         Bfn.  Coefficient  Atom+Function  
  ----- ------------  ---------------      ----- ------------  ---------------
    23      1.250049  2 C  py                19     -0.977569  2 C  py         
     4     -0.139530  1 O  py                34     -0.139533  3 O  py         
     8     -0.111349  1 O  py                38     -0.111344  3 O  py         
    24     -0.066332  2 C  pz                11     -0.061569  1 O  dxy        
    41      0.061569  3 O  dxy               20      0.051873  2 C  pz         

 Vector   18  Occ=0.000000D+00  E= 4.922802D-01
              MO Center=  2.5D-06,  5.1D-08, -3.8D-09, r^2= 2.0D+00
   Bfn.  Coefficient  Atom+Function         Bfn.  Coefficient  Atom+Function  
  ----- ------------  ---------------      ----- ------------  ---------------
    24      1.250301  2 C  pz                20     -0.977766  2 C  pz         
     5     -0.139558  1 O  pz                35     -0.139561  3 O  pz         
     9     -0.111372  1 O  pz                39     -0.111367  3 O  pz         
    23      0.066319  2 C  py                12     -0.061607  1 O  dxz        
    42      0.061606  3 O  dxz               19     -0.051863  2 C  py         

 Vector   19  Occ=0.000000D+00  E= 5.064497D-01
              MO Center= -5.2D-05, -1.1D-06,  3.9D-09, r^2= 2.1D+00
   Bfn.  Coefficient  Atom+Function         Bfn.  Coefficient  Atom+Function  
  ----- ------------  ---------------      ----- ------------  ---------------
    21      2.032735  2 C  s                 17     -1.428953  2 C  s          
     7     -0.253568  1 O  px                37      0.253536  3 O  px         
     3      0.197166  1 O  px                33     -0.197145  3 O  px         
     6     -0.179590  1 O  s                 36     -0.179489  3 O  s          
    10     -0.157014  1 O  dxx               40     -0.157008  3 O  dxx        

 Vector   20  Occ=0.000000D+00  E= 8.094756D-01
              MO Center=  1.3D-04,  2.6D-06,  2.9D-10, r^2= 4.9D+00
   Bfn.  Coefficient  Atom+Function         Bfn.  Coefficient  Atom+Function  
  ----- ------------  ---------------      ----- ------------  ---------------
     6      0.877432  1 O  s                 36      0.877515  3 O  s          
     7     -0.677189  1 O  px                37      0.677231  3 O  px         
     2     -0.530446  1 O  s                 32     -0.530468  3 O  s          
    17      0.506104  2 C  s                  3      0.451547  1 O  px         
    33     -0.451591  3 O  px                21     -0.353388  2 C  s          

 Vector   21  Occ=0.000000D+00  E= 8.478511D-01
              MO Center=  7.2D-05,  1.5D-06,  5.3D-10, r^2= 3.1D+00
   Bfn.  Coefficient  Atom+Function         Bfn.  Coefficient  Atom+Function  
  ----- ------------  ---------------      ----- ------------  ---------------
     8      0.654313  1 O  py                38     -0.654362  3 O  py         
     4     -0.587912  1 O  py                34      0.587940  3 O  py         
     9      0.355104  1 O  pz                39     -0.355130  3 O  pz         
     5     -0.319067  1 O  pz                35      0.319083  3 O  pz         
    26     -0.061944  2 C  dxy               27     -0.033631  2 C  dxz        

 Vector   22  Occ=0.000000D+00  E= 8.478511D-01
              MO Center=  7.2D-05,  1.5D-06,  3.5D-10, r^2= 3.1D+00
   Bfn.  Coefficient  Atom+Function         Bfn.  Coefficient  Atom+Function  
  ----- ------------  ---------------      ----- ------------  ---------------
     9      0.654445  1 O  pz                39     -0.654494  3 O  pz         
     5     -0.588030  1 O  pz                35      0.588059  3 O  pz         
     8     -0.355032  1 O  py                38      0.355059  3 O  py         
     4      0.319003  1 O  py                34     -0.319018  3 O  py         
    27     -0.061981  2 C  dxz               26      0.033611  2 C  dxy        

 Vector   23  Occ=0.000000D+00  E= 9.011215D-01
              MO Center= -1.3D-04, -2.7D-06, -5.2D-12, r^2= 4.3D+00
   Bfn.  Coefficient  Atom+Function         Bfn.  Coefficient  Atom+Function  
  ----- ------------  ---------------      ----- ------------  ---------------
     6      0.875808  1 O  s                 36     -0.875723  3 O  s          
    22      0.774306  2 C  px                 7     -0.637261  1 O  px         
    37     -0.637218  3 O  px                 3      0.605328  1 O  px         
    33      0.605293  3 O  px                 2     -0.279584  1 O  s          
    32      0.279536  3 O  s                 18     -0.263651  2 C  px         

 Vector   24  Occ=0.000000D+00  E= 9.885778D-01
              MO Center= -7.2D-05, -1.4D-06,  4.6D-10, r^2= 3.6D+00
   Bfn.  Coefficient  Atom+Function         Bfn.  Coefficient  Atom+Function  
  ----- ------------  ---------------      ----- ------------  ---------------
     9      0.816145  1 O  pz                39      0.816111  3 O  pz         
    24     -0.630560  2 C  pz                 5     -0.544759  1 O  pz         
    35     -0.544727  3 O  pz                 8      0.508051  1 O  py         
    38      0.508030  3 O  py                23     -0.392524  2 C  py         
     4     -0.339113  1 O  py                34     -0.339093  3 O  py         

 Vector   25  Occ=0.000000D+00  E= 9.885778D-01
              MO Center= -7.2D-05, -1.4D-06, -3.8D-11, r^2= 3.6D+00
   Bfn.  Coefficient  Atom+Function         Bfn.  Coefficient  Atom+Function  
  ----- ------------  ---------------      ----- ------------  ---------------
     8      0.815980  1 O  py                38      0.815947  3 O  py         
    23     -0.630433  2 C  py                 4     -0.544650  1 O  py         
    34     -0.544617  3 O  py                 9     -0.508153  1 O  pz         
    39     -0.508133  3 O  pz                24      0.392604  2 C  pz         
     5      0.339182  1 O  pz                35      0.339162  3 O  pz         

 Vector   26  Occ=0.000000D+00  E= 1.269540D+00
              MO Center=  7.4D-06,  1.5D-07, -8.5D-10, r^2= 2.8D+00
   Bfn.  Coefficient  Atom+Function         Bfn.  Coefficient  Atom+Function  
  ----- ------------  ---------------      ----- ------------  ---------------
    21     -2.535770  2 C  s                  6      2.495792  1 O  s          
    36      2.495855  3 O  s                  7      1.180017  1 O  px         
    37     -1.180032  3 O  px                 2     -1.000728  1 O  s          
    32     -1.000745  3 O  s                 10     -0.399716  1 O  dxx        
    40     -0.399723  3 O  dxx               25     -0.310678  2 C  dxx        

 Vector   27  Occ=0.000000D+00  E= 1.312385D+00
              MO Center=  6.1D-06,  1.2D-07, -2.5D-10, r^2= 1.8D+00
   Bfn.  Coefficient  Atom+Function         Bfn.  Coefficient  Atom+Function  
  ----- ------------  ---------------      ----- ------------  ---------------
    27      1.002019  2 C  dxz               12     -0.674260  1 O  dxz        
    42     -0.674271  3 O  dxz               26      0.395695  2 C  dxy        
    11     -0.266263  1 O  dxy               41     -0.266268  3 O  dxy        
     9      0.178024  1 O  pz                39     -0.178016  3 O  pz         
     8      0.070330  1 O  py                38     -0.070327  3 O  py         

 Vector   28  Occ=0.000000D+00  E= 1.312385D+00
              MO Center=  6.1D-06,  1.2D-07,  6.4D-11, r^2= 1.8D+00
   Bfn.  Coefficient  Atom+Function         Bfn.  Coefficient  Atom+Function  
  ----- ------------  ---------------      ----- ------------  ---------------
    26      1.001413  2 C  dxy               11     -0.673852  1 O  dxy        
    41     -0.673864  3 O  dxy               27     -0.395934  2 C  dxz        
    12      0.266424  1 O  dxz               42      0.266429  3 O  dxz        
     8      0.177988  1 O  py                38     -0.177981  3 O  py         
     9     -0.070344  1 O  pz                39      0.070341  3 O  pz         

 Vector   29  Occ=0.000000D+00  E= 1.484098D+00
              MO Center=  1.3D-05,  2.7D-07,  2.0D-12, r^2= 1.1D+00
   Bfn.  Coefficient  Atom+Function         Bfn.  Coefficient  Atom+Function  
  ----- ------------  ---------------      ----- ------------  ---------------
    28      0.716094  2 C  dyy               30     -0.716382  2 C  dzz        
    13      0.303888  1 O  dyy               15     -0.304010  1 O  dzz        
    43      0.303899  3 O  dyy               45     -0.304021  3 O  dzz        
    26     -0.028752  2 C  dxy        

 Vector   30  Occ=0.000000D+00  E= 1.484098D+00
              MO Center=  1.3D-05,  2.7D-07, -1.3D-11, r^2= 1.1D+00
   Bfn.  Coefficient  Atom+Function         Bfn.  Coefficient  Atom+Function  
  ----- ------------  ---------------      ----- ------------  ---------------
    29      1.432476  2 C  dyz               14      0.607898  1 O  dyz        
    44      0.607920  3 O  dyz               27     -0.028758  2 C  dxz        

 Vector   31  Occ=0.000000D+00  E= 1.741473D+00
              MO Center= -9.5D-06, -1.9D-07, -1.5D-10, r^2= 3.2D+00
   Bfn.  Coefficient  Atom+Function         Bfn.  Coefficient  Atom+Function  
  ----- ------------  ---------------      ----- ------------  ---------------
     6      4.584868  1 O  s                 36     -4.584828  3 O  s          
    22      4.319417  2 C  px                 7      1.452590  1 O  px         
    37      1.452573  3 O  px                 2     -1.343347  1 O  s          
    32      1.343333  3 O  s                 10     -0.616510  1 O  dxx        
    40      0.616506  3 O  dxx                3     -0.172800  1 O  px         

 Vector   32  Occ=0.000000D+00  E= 1.744979D+00
              MO Center=  5.8D-05,  1.2D-06, -1.0D-11, r^2= 2.6D+00
   Bfn.  Coefficient  Atom+Function         Bfn.  Coefficient  Atom+Function  
  ----- ------------  ---------------      ----- ------------  ---------------
    13      0.612116  1 O  dyy               15     -0.612363  1 O  dzz        
    43     -0.612143  3 O  dyy               45      0.612390  3 O  dzz        

 Vector   33  Occ=0.000000D+00  E= 1.744980D+00
              MO Center=  5.8D-05,  1.2D-06, -6.9D-11, r^2= 2.6D+00
   Bfn.  Coefficient  Atom+Function         Bfn.  Coefficient  Atom+Function  
  ----- ------------  ---------------      ----- ------------  ---------------
    14      1.224479  1 O  dyz               44     -1.224533  3 O  dyz        

 Vector   34  Occ=0.000000D+00  E= 1.867904D+00
              MO Center= -7.2D-05, -1.4D-06, -1.4D-10, r^2= 2.1D+00
   Bfn.  Coefficient  Atom+Function         Bfn.  Coefficient  Atom+Function  
  ----- ------------  ---------------      ----- ------------  ---------------
    13      0.533896  1 O  dyy               15     -0.534111  1 O  dzz        
    43      0.533859  3 O  dyy               45     -0.534074  3 O  dzz        
    28     -0.491907  2 C  dyy               30      0.492105  2 C  dzz        

 Vector   35  Occ=0.000000D+00  E= 1.867904D+00
              MO Center= -7.2D-05, -1.4D-06, -4.8D-10, r^2= 2.1D+00
   Bfn.  Coefficient  Atom+Function         Bfn.  Coefficient  Atom+Function  
  ----- ------------  ---------------      ----- ------------  ---------------
    14      1.068007  1 O  dyz               44      1.067934  3 O  dyz        
    29     -0.984012  2 C  dyz        

 Vector   36  Occ=0.000000D+00  E= 1.884755D+00
              MO Center= -8.9D-07, -1.8D-08,  5.2D-10, r^2= 2.5D+00
   Bfn.  Coefficient  Atom+Function         Bfn.  Coefficient  Atom+Function  
  ----- ------------  ---------------      ----- ------------  ---------------
    11      1.244046  1 O  dxy               41     -1.244049  3 O  dxy        
    23     -0.327861  2 C  py                12      0.275435  1 O  dxz        
    42     -0.275436  3 O  dxz                8      0.259839  1 O  py         
    38      0.259842  3 O  py                19     -0.170768  2 C  py         
     4     -0.119746  1 O  py                34     -0.119745  3 O  py         

 Vector   37  Occ=0.000000D+00  E= 1.884755D+00
              MO Center= -8.9D-07, -1.8D-08,  1.7D-10, r^2= 2.5D+00
   Bfn.  Coefficient  Atom+Function         Bfn.  Coefficient  Atom+Function  
  ----- ------------  ---------------      ----- ------------  ---------------
    12      1.244798  1 O  dxz               42     -1.244801  3 O  dxz        
    24     -0.327927  2 C  pz                11     -0.275269  1 O  dxy        
    41      0.275270  3 O  dxy                9      0.259892  1 O  pz         
    39      0.259895  3 O  pz                20     -0.170802  2 C  pz         
     5     -0.119770  1 O  pz                35     -0.119769  3 O  pz         

 Vector   38  Occ=0.000000D+00  E= 2.014116D+00
              MO Center=  4.9D-06,  9.7D-08, -8.0D-11, r^2= 1.4D+00
   Bfn.  Coefficient  Atom+Function         Bfn.  Coefficient  Atom+Function  
  ----- ------------  ---------------      ----- ------------  ---------------
    25      0.515426  2 C  dxx               28     -0.460749  2 C  dyy        
    30     -0.461142  2 C  dzz                6      0.441663  1 O  s          
    36      0.441703  3 O  s                  2     -0.437597  1 O  s          
    32     -0.437610  3 O  s                  7      0.423619  1 O  px         
    37     -0.423635  3 O  px                17     -0.420458  2 C  s          

 Vector   39  Occ=0.000000D+00  E= 2.537291D+00
              MO Center= -9.1D-06, -1.8D-07, -4.1D-12, r^2= 1.8D+00
   Bfn.  Coefficient  Atom+Function         Bfn.  Coefficient  Atom+Function  
  ----- ------------  ---------------      ----- ------------  ---------------
    26      1.652335  2 C  dxy               11      1.121451  1 O  dxy        
    41      1.121439  3 O  dxy                8      0.222608  1 O  py         
    38     -0.222606  3 O  py                27      0.197025  2 C  dxz        
    12      0.133722  1 O  dxz               42      0.133721  3 O  dxz        
    25     -0.033185  2 C  dxx               28      0.033185  2 C  dyy        

 Vector   40  Occ=0.000000D+00  E= 2.537291D+00
              MO Center= -9.1D-06, -1.8D-07, -6.6D-11, r^2= 1.8D+00
   Bfn.  Coefficient  Atom+Function         Bfn.  Coefficient  Atom+Function  
  ----- ------------  ---------------      ----- ------------  ---------------
    27      1.653334  2 C  dxz               12      1.122129  1 O  dxz        
    42      1.122117  3 O  dxz                9      0.222653  1 O  pz         
    39     -0.222651  3 O  pz                26     -0.196906  2 C  dxy        
    11     -0.133641  1 O  dxy               41     -0.133640  3 O  dxy        
    29      0.033191  2 C  dyz                8     -0.026528  1 O  py         

 Vector   41  Occ=0.000000D+00  E= 2.602028D+00
              MO Center=  7.9D-06,  1.6D-07,  7.0D-11, r^2= 2.4D+00
   Bfn.  Coefficient  Atom+Function         Bfn.  Coefficient  Atom+Function  
  ----- ------------  ---------------      ----- ------------  ---------------
     6      2.670098  1 O  s                 36     -2.670108  3 O  s          
    22      2.311085  2 C  px                 7      1.326638  1 O  px         
    37      1.326648  3 O  px                18      1.123440  2 C  px         
     2     -0.972003  1 O  s                 32      0.972005  3 O  s          
    10      0.774249  1 O  dxx               40     -0.774261  3 O  dxx        

 Vector   42  Occ=0.000000D+00  E= 2.922129D+00
              MO Center= -1.5D-05, -2.9D-07,  2.3D-11, r^2= 2.0D+00
   Bfn.  Coefficient  Atom+Function         Bfn.  Coefficient  Atom+Function  
  ----- ------------  ---------------      ----- ------------  ---------------
    21      1.796080  2 C  s                 17      1.514314  2 C  s          
     6     -1.412069  1 O  s                 36     -1.412040  3 O  s          
    28     -1.045642  2 C  dyy               30     -1.046372  2 C  dzz        
     7     -0.920489  1 O  px                37      0.920473  3 O  px         
    10     -0.787352  1 O  dxx               40     -0.787338  3 O  dxx        

 Vector   43  Occ=0.000000D+00  E= 3.496487D+00
              MO Center=  1.5D-05,  3.0D-07, -2.9D-11, r^2= 3.0D+00
   Bfn.  Coefficient  Atom+Function         Bfn.  Coefficient  Atom+Function  
  ----- ------------  ---------------      ----- ------------  ---------------
     6      2.826349  1 O  s                 36      2.826457  3 O  s          
    21     -1.366426  2 C  s                 13     -1.191880  1 O  dyy        
    15     -1.192003  1 O  dzz               43     -1.191902  3 O  dyy        
    45     -1.192024  3 O  dzz               10     -0.888337  1 O  dxx        
    40     -0.888351  3 O  dxx                7      0.641009  1 O  px         

 Vector   44  Occ=0.000000D+00  E= 4.177060D+00
              MO Center=  4.2D-05,  8.4D-07,  5.3D-12, r^2= 3.2D+00
   Bfn.  Coefficient  Atom+Function         Bfn.  Coefficient  Atom+Function  
  ----- ------------  ---------------      ----- ------------  ---------------
     6      6.886888  1 O  s                 36     -6.886823  3 O  s          
    22      4.732247  2 C  px                 7      1.833513  1 O  px         
    37      1.833398  3 O  px                13     -1.561152  1 O  dyy        
    15     -1.561308  1 O  dzz               43      1.561131  3 O  dyy        
    45      1.561287  3 O  dzz               10     -1.173232  1 O  dxx        

 Vector   45  Occ=0.000000D+00  E= 4.185913D+00
              MO Center= -5.9D-05, -1.2D-06, -2.4D-13, r^2= 1.3D+00
   Bfn.  Coefficient  Atom+Function         Bfn.  Coefficient  Atom+Function  
  ----- ------------  ---------------      ----- ------------  ---------------
    17      2.847610  2 C  s                 25     -2.679671  2 C  dxx        
    28     -1.446822  2 C  dyy               30     -1.446325  2 C  dzz        
    10      0.826217  1 O  dxx               40      0.825991  3 O  dxx        
     7      0.558582  1 O  px                37     -0.558932  3 O  px         
    16     -0.402401  2 C  s                  2     -0.204904  1 O  s          


     ---------------------------------------------
      Total Density - Mulliken Population Analysis
     ---------------------------------------------

    Atom       Charge   Shell Charges
 -----------   ------   -------------------------------------------------------
    1 O    8     8.37   1.99  0.96  2.68  1.06  1.67 -0.00
    2 C    6     5.26   1.99  0.78  1.59  0.41  0.46  0.03
    3 O    8     8.37   1.99  0.96  2.68  1.06  1.67 -0.00

     -------------------------------------------
      Total Density - Lowdin Population Analysis
     -------------------------------------------

    Atom       Charge   Shell Charges
 -----------   ------   -------------------------------------------------------
    1 O    8     8.21   1.98  0.78  2.54  0.51  1.84  0.57
    2 C    6     5.58   1.98  0.41  1.40  0.32  0.94  0.53
    3 O    8     8.21   1.98  0.78  2.54  0.51  1.84  0.57


                         DFT ENERGY GRADIENTS

    atom               coordinates                        gradient
                 x          y          z           x          y          z
   1 O      -2.654498  -0.053290   0.000000   -0.228951  -0.004596  -0.000000
   2 C       0.000000   0.000000   0.000000    0.000018   0.000000   0.000000
   3 O       2.654498   0.053290   0.000000    0.228934   0.004596  -0.000000


@ Step       Energy      Delta E   Gmax     Grms     Xrms     Xmax   Walltime
@ ---- ---------------- -------- -------- -------- -------- -------- --------
@    0    -188.44612367  0.0D+00  0.22895  0.10795  0.00000  0.00000      3.7
                                                                    

 Restricting large step in mode    3 eval= 4.2D-01 step=-7.8D-01 new=-3.0D-01

                                 NWChem DFT Module
                                 -----------------


                                     cpd00016



  Caching 1-el integrals 
   Time after variat. SCF:      3.8

     ---------------------------------------------
      Total Density - Mulliken Population Analysis
     ---------------------------------------------

    Atom       Charge   Shell Charges
 -----------   ------   -------------------------------------------------------
    1 O    8     8.37   1.99  0.97  2.70  1.05  1.66 -0.00
    2 C    6     5.26   1.99  0.78  1.62  0.38  0.46  0.04
    3 O    8     8.37   1.99  0.97  2.70  1.05  1.66 -0.00
   Time prior to 1st pass:      3.8


         Total DFT energy =     -188.533962716704
      One electron energy =     -361.104709955339
           Coulomb energy =      142.485181258513
    Exchange-Corr. energy =      -22.311155840458
 Nuclear repulsion energy =       52.396721820579

 Numeric. integr. density =       21.999999561366

     Total iterative time =      1.3s



                       DFT Final Molecular Orbital Analysis
                       ------------------------------------

 Vector    1  Occ=2.000000D+00  E=-1.925936D+01
              MO Center= -5.8D-01, -1.2D-02,  3.7D-10, r^2= 1.4D+00
   Bfn.  Coefficient  Atom+Function         Bfn.  Coefficient  Atom+Function  
  ----- ------------  ---------------      ----- ------------  ---------------
     1      0.844800  1 O  s                 31     -0.521309  3 O  s          

 Vector    2  Occ=2.000000D+00  E=-1.925935D+01
              MO Center=  5.8D-01,  1.2D-02,  3.7D-10, r^2= 1.4D+00
   Bfn.  Coefficient  Atom+Function         Bfn.  Coefficient  Atom+Function  
  ----- ------------  ---------------      ----- ------------  ---------------
    31      0.844930  3 O  s                  1      0.521519  1 O  s          

 Vector    3  Occ=2.000000D+00  E=-1.042518D+01
              MO Center= -8.6D-06,  1.2D-09, -7.4D-10, r^2= 2.8D-02
   Bfn.  Coefficient  Atom+Function         Bfn.  Coefficient  Atom+Function  
  ----- ------------  ---------------      ----- ------------  ---------------
    16      0.992980  2 C  s                 17      0.046356  2 C  s          

 Vector    4  Occ=2.000000D+00  E=-1.105673D+00
              MO Center= -4.3D-04, -8.7D-06,  1.8D-09, r^2= 1.4D+00
   Bfn.  Coefficient  Atom+Function         Bfn.  Coefficient  Atom+Function  
  ----- ------------  ---------------      ----- ------------  ---------------
     2      0.305698  1 O  s                 32      0.305550  3 O  s          
     6      0.278422  1 O  s                 36      0.278274  3 O  s          
    17      0.276034  2 C  s                  1     -0.136492  1 O  s          
    31     -0.136425  3 O  s                 16     -0.134035  2 C  s          
     3      0.107218  1 O  px                33     -0.107166  3 O  px         

 Vector    5  Occ=2.000000D+00  E=-1.067130D+00
              MO Center=  4.4D-04,  8.9D-06, -1.1D-09, r^2= 1.5D+00
   Bfn.  Coefficient  Atom+Function         Bfn.  Coefficient  Atom+Function  
  ----- ------------  ---------------      ----- ------------  ---------------
     6      0.344681  1 O  s                 36     -0.344812  3 O  s          
     2      0.333242  1 O  s                 32     -0.333381  3 O  s          
    18     -0.275324  2 C  px                 1     -0.150108  1 O  s          
    31      0.150170  3 O  s                  3      0.106003  1 O  px         
    33      0.106047  3 O  px                22      0.053091  2 C  px         

 Vector    6  Occ=2.000000D+00  E=-5.836571D-01
              MO Center= -1.1D-04, -2.3D-06,  3.5D-09, r^2= 2.3D+00
   Bfn.  Coefficient  Atom+Function         Bfn.  Coefficient  Atom+Function  
  ----- ------------  ---------------      ----- ------------  ---------------
    17     -0.360338  2 C  s                  6      0.340403  1 O  s          
    36      0.340379  3 O  s                  3     -0.297465  1 O  px         
    33      0.297430  3 O  px                21     -0.272170  2 C  s          
     2      0.213561  1 O  s                 32      0.213546  3 O  s          
     7     -0.147492  1 O  px                16      0.147307  2 C  s          

 Vector    7  Occ=2.000000D+00  E=-5.106490D-01
              MO Center=  9.2D-05,  1.8D-06,  5.0D-09, r^2= 2.4D+00
   Bfn.  Coefficient  Atom+Function         Bfn.  Coefficient  Atom+Function  
  ----- ------------  ---------------      ----- ------------  ---------------
     3      0.389021  1 O  px                33      0.389038  3 O  px         
    18     -0.372121  2 C  px                 6     -0.255246  1 O  s          
    36      0.255274  3 O  s                  7      0.197576  1 O  px         
    37      0.197586  3 O  px                 2     -0.145853  1 O  s          
    32      0.145870  3 O  s                  1      0.066795  1 O  s          

 Vector    8  Occ=2.000000D+00  E=-4.747369D-01
              MO Center= -1.0D-04, -2.0D-06, -6.8D-09, r^2= 1.6D+00
   Bfn.  Coefficient  Atom+Function         Bfn.  Coefficient  Atom+Function  
  ----- ------------  ---------------      ----- ------------  ---------------
    19      0.383749  2 C  py                 4      0.354311  1 O  py         
    34      0.354262  3 O  py                 8      0.205956  1 O  py         
    38      0.205926  3 O  py                23      0.182588  2 C  py         
    20     -0.044074  2 C  pz                11      0.043817  1 O  dxy        
    41     -0.043812  3 O  dxy                5     -0.040693  1 O  pz         

 Vector    9  Occ=2.000000D+00  E=-4.747369D-01
              MO Center= -1.0D-04, -2.1D-06, -4.8D-09, r^2= 1.6D+00
   Bfn.  Coefficient  Atom+Function         Bfn.  Coefficient  Atom+Function  
  ----- ------------  ---------------      ----- ------------  ---------------
    20      0.383827  2 C  pz                 5      0.354382  1 O  pz         
    35      0.354334  3 O  pz                 9      0.205997  1 O  pz         
    39      0.205968  3 O  pz                24      0.182624  2 C  pz         
    19      0.044065  2 C  py                12      0.043844  1 O  dxz        
    42     -0.043839  3 O  dxz                4      0.040685  1 O  py         

 Vector   10  Occ=2.000000D+00  E=-3.654312D-01
              MO Center=  1.2D-04,  2.3D-06, -1.4D-09, r^2= 2.2D+00
   Bfn.  Coefficient  Atom+Function         Bfn.  Coefficient  Atom+Function  
  ----- ------------  ---------------      ----- ------------  ---------------
     4      0.471580  1 O  py                34     -0.471619  3 O  py         
     8      0.329840  1 O  py                38     -0.329863  3 O  py         
    26     -0.085326  2 C  dxy               11      0.036291  1 O  dxy        
    41      0.036295  3 O  dxy                5     -0.028237  1 O  pz         
    35      0.028239  3 O  pz         

 Vector   11  Occ=2.000000D+00  E=-3.654312D-01
              MO Center=  1.2D-04,  2.3D-06, -1.1D-08, r^2= 2.2D+00
   Bfn.  Coefficient  Atom+Function         Bfn.  Coefficient  Atom+Function  
  ----- ------------  ---------------      ----- ------------  ---------------
     5      0.471675  1 O  pz                35     -0.471714  3 O  pz         
     9      0.329906  1 O  pz                39     -0.329930  3 O  pz         
    27     -0.085378  2 C  dxz               12      0.036313  1 O  dxz        
    42      0.036317  3 O  dxz                4      0.028231  1 O  py         
    34     -0.028234  3 O  py         

 Vector   12  Occ=0.000000D+00  E=-4.445851D-02
              MO Center= -1.1D-05,  9.0D-07, -8.5D-08, r^2= 1.5D+00
   Bfn.  Coefficient  Atom+Function         Bfn.  Coefficient  Atom+Function  
  ----- ------------  ---------------      ----- ------------  ---------------
    19      0.600928  2 C  py                23      0.492226  2 C  py         
     4     -0.359660  1 O  py                34     -0.359653  3 O  py         
     8     -0.326574  1 O  py                38     -0.326564  3 O  py         
    20     -0.049357  2 C  pz                24     -0.040429  2 C  pz         
     5      0.029541  1 O  pz                35      0.029540  3 O  pz         

 Vector   13  Occ=0.000000D+00  E=-4.445851D-02
              MO Center= -1.1D-05, -1.3D-07,  8.2D-09, r^2= 1.5D+00
   Bfn.  Coefficient  Atom+Function         Bfn.  Coefficient  Atom+Function  
  ----- ------------  ---------------      ----- ------------  ---------------
    20      0.601049  2 C  pz                24      0.492325  2 C  pz         
     5     -0.359732  1 O  pz                35     -0.359725  3 O  pz         
     9     -0.326640  1 O  pz                39     -0.326630  3 O  pz         
    19      0.049347  2 C  py                23      0.040421  2 C  py         
     4     -0.029535  1 O  py                34     -0.029534  3 O  py         

 Vector   14  Occ=0.000000D+00  E= 9.175093D-03
              MO Center=  3.7D-05, -3.2D-07,  7.7D-08, r^2= 1.8D+00
   Bfn.  Coefficient  Atom+Function         Bfn.  Coefficient  Atom+Function  
  ----- ------------  ---------------      ----- ------------  ---------------
    21      1.549587  2 C  s                  6     -0.521609  1 O  s          
    36     -0.521582  3 O  s                  7     -0.465236  1 O  px         
    37      0.465250  3 O  px                 3     -0.375723  1 O  px         
    33      0.375745  3 O  px                17      0.184389  2 C  s          
     2     -0.164440  1 O  s                 32     -0.164444  3 O  s          

 Vector   15  Occ=0.000000D+00  E= 3.746296D-01
              MO Center= -6.3D-05, -6.6D-07, -2.1D-08, r^2= 3.6D+00
   Bfn.  Coefficient  Atom+Function         Bfn.  Coefficient  Atom+Function  
  ----- ------------  ---------------      ----- ------------  ---------------
    22      3.774560  2 C  px                 6      2.497955  1 O  s          
    36     -2.497824  3 O  s                  7      0.999890  1 O  px         
    37      0.999860  3 O  px                18      0.139895  2 C  px         
     1     -0.104279  1 O  s                 31      0.104277  3 O  s          
     2      0.101568  1 O  s                 32     -0.101568  3 O  s          

 Vector   16  Occ=0.000000D+00  E= 4.862434D-01
              MO Center= -9.5D-06,  3.2D-07,  7.5D-08, r^2= 2.1D+00
   Bfn.  Coefficient  Atom+Function         Bfn.  Coefficient  Atom+Function  
  ----- ------------  ---------------      ----- ------------  ---------------
    23      1.245166  2 C  py                19     -0.928010  2 C  py         
    24      0.314443  2 C  pz                20     -0.234351  2 C  pz         
     4     -0.128972  1 O  py                34     -0.128973  3 O  py         
     8     -0.125274  1 O  py                38     -0.125277  3 O  py         
    11     -0.082248  1 O  dxy               41      0.082241  3 O  dxy        

 Vector   17  Occ=0.000000D+00  E= 4.862434D-01
              MO Center= -9.5D-06,  4.0D-08, -9.6D-08, r^2= 2.1D+00
   Bfn.  Coefficient  Atom+Function         Bfn.  Coefficient  Atom+Function  
  ----- ------------  ---------------      ----- ------------  ---------------
    24      1.245417  2 C  pz                20     -0.928197  2 C  pz         
    23     -0.314379  2 C  py                19      0.234304  2 C  py         
     5     -0.128998  1 O  pz                35     -0.128999  3 O  pz         
     9     -0.125299  1 O  pz                39     -0.125302  3 O  pz         
    12     -0.082297  1 O  dxz               42      0.082291  3 O  dxz        

 Vector   18  Occ=0.000000D+00  E= 5.248458D-01
              MO Center=  2.3D-04,  4.5D-06,  2.3D-08, r^2= 2.0D+00
   Bfn.  Coefficient  Atom+Function         Bfn.  Coefficient  Atom+Function  
  ----- ------------  ---------------      ----- ------------  ---------------
    21      2.064480  2 C  s                 17     -1.385871  2 C  s          
     6     -0.320802  1 O  s                 36     -0.321019  3 O  s          
     7     -0.293144  1 O  px                37      0.293108  3 O  px         
     3      0.272780  1 O  px                33     -0.272911  3 O  px         
    10     -0.176156  1 O  dxx               40     -0.176192  3 O  dxx        

 Vector   19  Occ=0.000000D+00  E= 5.676550D-01
              MO Center= -2.1D-04, -4.1D-06, -6.0D-11, r^2= 1.4D+00
   Bfn.  Coefficient  Atom+Function         Bfn.  Coefficient  Atom+Function  
  ----- ------------  ---------------      ----- ------------  ---------------
    18      1.144119  2 C  px                22     -0.619668  2 C  px         
     7      0.314035  1 O  px                37      0.314104  3 O  px         
     3      0.305022  1 O  px                33      0.304899  3 O  px         
     2      0.216563  1 O  s                 32     -0.216582  3 O  s          
     6     -0.187509  1 O  s                 36      0.187436  3 O  s          

 Vector   20  Occ=0.000000D+00  E= 7.939946D-01
              MO Center= -1.0D-04, -2.2D-06,  1.0D-09, r^2= 4.5D+00
   Bfn.  Coefficient  Atom+Function         Bfn.  Coefficient  Atom+Function  
  ----- ------------  ---------------      ----- ------------  ---------------
     7      0.855638  1 O  px                37     -0.855573  3 O  px         
    17     -0.657647  2 C  s                  6     -0.570232  1 O  s          
    36     -0.570218  3 O  s                  2      0.435024  1 O  s          
    32      0.435023  3 O  s                  3     -0.424206  1 O  px         
    33      0.424167  3 O  px                25     -0.336717  2 C  dxx        

 Vector   21  Occ=0.000000D+00  E= 8.633947D-01
              MO Center= -2.3D-05, -9.8D-07,  1.3D-08, r^2= 2.9D+00
   Bfn.  Coefficient  Atom+Function         Bfn.  Coefficient  Atom+Function  
  ----- ------------  ---------------      ----- ------------  ---------------
     8      0.773233  1 O  py                38     -0.773203  3 O  py         
     4     -0.668065  1 O  py                34      0.668052  3 O  py         
    26      0.061051  2 C  dxy        

 Vector   22  Occ=0.000000D+00  E= 8.633947D-01
              MO Center= -2.3D-05, -5.5D-07,  3.1D-08, r^2= 2.9D+00
   Bfn.  Coefficient  Atom+Function         Bfn.  Coefficient  Atom+Function  
  ----- ------------  ---------------      ----- ------------  ---------------
     9      0.773388  1 O  pz                39     -0.773359  3 O  pz         
     5     -0.668200  1 O  pz                35      0.668187  3 O  pz         
    27      0.061088  2 C  dxz        

 Vector   23  Occ=0.000000D+00  E= 9.187718D-01
              MO Center=  1.1D-04,  2.3D-06, -6.4D-09, r^2= 3.7D+00
   Bfn.  Coefficient  Atom+Function         Bfn.  Coefficient  Atom+Function  
  ----- ------------  ---------------      ----- ------------  ---------------
     6      0.789699  1 O  s                 36     -0.789785  3 O  s          
    22      0.733660  2 C  px                 7     -0.675696  1 O  px         
    37     -0.675720  3 O  px                 3      0.660618  1 O  px         
    33      0.660644  3 O  px                 2     -0.173229  1 O  s          
    32      0.173277  3 O  s                 13     -0.108318  1 O  dyy        

 Vector   24  Occ=0.000000D+00  E= 1.010983D+00
              MO Center=  2.9D-05,  7.3D-07, -9.9D-09, r^2= 3.4D+00
   Bfn.  Coefficient  Atom+Function         Bfn.  Coefficient  Atom+Function  
  ----- ------------  ---------------      ----- ------------  ---------------
     8      1.021921  1 O  py                38      1.021927  3 O  py         
    23     -0.865168  2 C  py                 4     -0.639596  1 O  py         
    34     -0.639612  3 O  py                19      0.167269  2 C  py         
    11     -0.133246  1 O  dxy               41      0.133241  3 O  dxy        
     9     -0.048014  1 O  pz                39     -0.048014  3 O  pz         

 Vector   25  Occ=0.000000D+00  E= 1.010983D+00
              MO Center=  2.9D-05,  5.0D-07,  9.0D-09, r^2= 3.4D+00
   Bfn.  Coefficient  Atom+Function         Bfn.  Coefficient  Atom+Function  
  ----- ------------  ---------------      ----- ------------  ---------------
     9      1.022127  1 O  pz                39      1.022133  3 O  pz         
    24     -0.865343  2 C  pz                 5     -0.639725  1 O  pz         
    35     -0.639741  3 O  pz                20      0.167303  2 C  pz         
    12     -0.133326  1 O  dxz               42      0.133321  3 O  dxz        
     8      0.048004  1 O  py                38      0.048005  3 O  py         

 Vector   26  Occ=0.000000D+00  E= 1.316739D+00
              MO Center=  2.4D-05,  2.3D-07,  8.2D-09, r^2= 2.6D+00
   Bfn.  Coefficient  Atom+Function         Bfn.  Coefficient  Atom+Function  
  ----- ------------  ---------------      ----- ------------  ---------------
    21     -3.092690  2 C  s                  6      2.975489  1 O  s          
    36      2.975471  3 O  s                  7      1.277903  1 O  px         
    37     -1.277910  3 O  px                 2     -1.093795  1 O  s          
    32     -1.093799  3 O  s                 10     -0.385830  1 O  dxx        
    40     -0.385848  3 O  dxx               25     -0.338456  2 C  dxx        

 Vector   27  Occ=0.000000D+00  E= 1.334462D+00
              MO Center=  5.0D-06,  1.0D-07,  5.1D-08, r^2= 1.6D+00
   Bfn.  Coefficient  Atom+Function         Bfn.  Coefficient  Atom+Function  
  ----- ------------  ---------------      ----- ------------  ---------------
    27      0.959084  2 C  dxz               12     -0.672359  1 O  dxz        
    42     -0.672369  3 O  dxz               26     -0.356523  2 C  dxy        
    11      0.249938  1 O  dxy               41      0.249942  3 O  dxy        
     9      0.123770  1 O  pz                39     -0.123777  3 O  pz         
     5      0.060166  1 O  pz                35     -0.060150  3 O  pz         

 Vector   28  Occ=0.000000D+00  E= 1.334462D+00
              MO Center=  5.0D-06,  3.7D-09, -4.4D-08, r^2= 1.6D+00
   Bfn.  Coefficient  Atom+Function         Bfn.  Coefficient  Atom+Function  
  ----- ------------  ---------------      ----- ------------  ---------------
    26      0.958504  2 C  dxy               11     -0.671952  1 O  dxy        
    41     -0.671963  3 O  dxy               27      0.356739  2 C  dxz        
    12     -0.250089  1 O  dxz               42     -0.250093  3 O  dxz        
     8      0.123746  1 O  py                38     -0.123752  3 O  py         
     4      0.060154  1 O  py                34     -0.060138  3 O  py         

 Vector   29  Occ=0.000000D+00  E= 1.442388D+00
              MO Center= -4.4D-05, -7.8D-07, -1.3D-09, r^2= 1.1D+00
   Bfn.  Coefficient  Atom+Function         Bfn.  Coefficient  Atom+Function  
  ----- ------------  ---------------      ----- ------------  ---------------
    29      1.351149  2 C  dyz               14      0.651739  1 O  dyz        
    44      0.651680  3 O  dyz               27     -0.027125  2 C  dxz        

 Vector   30  Occ=0.000000D+00  E= 1.442388D+00
              MO Center= -4.4D-05, -7.8D-07, -1.3D-09, r^2= 1.1D+00
   Bfn.  Coefficient  Atom+Function         Bfn.  Coefficient  Atom+Function  
  ----- ------------  ---------------      ----- ------------  ---------------
    28      0.675439  2 C  dyy               30     -0.675711  2 C  dzz        
    13      0.325804  1 O  dyy               15     -0.325935  1 O  dzz        
    43      0.325774  3 O  dyy               45     -0.325906  3 O  dzz        
    26     -0.027119  2 C  dxy        

 Vector   31  Occ=0.000000D+00  E= 1.736372D+00
              MO Center=  5.9D-05,  1.1D-06,  2.9D-10, r^2= 2.3D+00
   Bfn.  Coefficient  Atom+Function         Bfn.  Coefficient  Atom+Function  
  ----- ------------  ---------------      ----- ------------  ---------------
    14      1.224518  1 O  dyz               44     -1.224566  3 O  dyz        

 Vector   32  Occ=0.000000D+00  E= 1.736372D+00
              MO Center=  5.9D-05,  1.1D-06,  3.0D-10, r^2= 2.3D+00
   Bfn.  Coefficient  Atom+Function         Bfn.  Coefficient  Atom+Function  
  ----- ------------  ---------------      ----- ------------  ---------------
    13      0.612135  1 O  dyy               15     -0.612382  1 O  dzz        
    43     -0.612160  3 O  dyy               45      0.612406  3 O  dzz        

 Vector   33  Occ=0.000000D+00  E= 1.805755D+00
              MO Center= -2.0D-05,  5.6D-08, -9.7D-09, r^2= 3.0D+00
   Bfn.  Coefficient  Atom+Function         Bfn.  Coefficient  Atom+Function  
  ----- ------------  ---------------      ----- ------------  ---------------
     6      5.362388  1 O  s                 36     -5.362227  3 O  s          
    22      4.919987  2 C  px                 2     -1.492761  1 O  s          
    32      1.492739  3 O  s                  7      1.482088  1 O  px         
    37      1.482091  3 O  px                10     -0.577596  1 O  dxx        
    40      0.577588  3 O  dxx                3     -0.142466  1 O  px         

 Vector   34  Occ=0.000000D+00  E= 1.931866D+00
              MO Center= -1.5D-05, -1.6D-08, -1.1D-08, r^2= 1.8D+00
   Bfn.  Coefficient  Atom+Function         Bfn.  Coefficient  Atom+Function  
  ----- ------------  ---------------      ----- ------------  ---------------
    29     -1.106662  2 C  dyz               14      1.048972  1 O  dyz        
    44      1.048950  3 O  dyz        

 Vector   35  Occ=0.000000D+00  E= 1.931866D+00
              MO Center= -1.5D-05, -1.6D-08, -1.1D-08, r^2= 1.8D+00
   Bfn.  Coefficient  Atom+Function         Bfn.  Coefficient  Atom+Function  
  ----- ------------  ---------------      ----- ------------  ---------------
    28     -0.553220  2 C  dyy               30      0.553443  2 C  dzz        
    13      0.524380  1 O  dyy               15     -0.524592  1 O  dzz        
    43      0.524369  3 O  dyy               45     -0.524581  3 O  dzz        

 Vector   36  Occ=0.000000D+00  E= 1.969162D+00
              MO Center=  2.1D-05,  1.4D-07, -1.3D-08, r^2= 2.2D+00
   Bfn.  Coefficient  Atom+Function         Bfn.  Coefficient  Atom+Function  
  ----- ------------  ---------------      ----- ------------  ---------------
    11      1.246173  1 O  dxy               41     -1.246186  3 O  dxy        
    12     -0.388463  1 O  dxz               42      0.388467  3 O  dxz        
    23     -0.350480  2 C  py                 8      0.322020  1 O  py         
    38      0.322013  3 O  py                19     -0.289873  2 C  py         
     4     -0.131854  1 O  py                34     -0.131853  3 O  py         

 Vector   37  Occ=0.000000D+00  E= 1.969162D+00
              MO Center=  2.1D-05,  6.6D-08,  2.7D-08, r^2= 2.2D+00
   Bfn.  Coefficient  Atom+Function         Bfn.  Coefficient  Atom+Function  
  ----- ------------  ---------------      ----- ------------  ---------------
    12      1.246927  1 O  dxz               42     -1.246939  3 O  dxz        
    11      0.388229  1 O  dxy               41     -0.388232  3 O  dxy        
    24     -0.350550  2 C  pz                 9      0.322085  1 O  pz         
    39      0.322077  3 O  pz                20     -0.289931  2 C  pz         
     5     -0.131880  1 O  pz                35     -0.131879  3 O  pz         

 Vector   38  Occ=0.000000D+00  E= 2.321438D+00
              MO Center=  6.9D-05,  1.3D-06,  5.5D-09, r^2= 1.4D+00
   Bfn.  Coefficient  Atom+Function         Bfn.  Coefficient  Atom+Function  
  ----- ------------  ---------------      ----- ------------  ---------------
     6      0.880805  1 O  s                 36      0.880903  3 O  s          
     7      0.686884  1 O  px                37     -0.686942  3 O  px         
     2     -0.633436  1 O  s                 32     -0.633453  3 O  s          
    28     -0.578915  2 C  dyy               30     -0.579303  2 C  dzz        
    10      0.424846  1 O  dxx               40      0.424931  3 O  dxx        

 Vector   39  Occ=0.000000D+00  E= 2.733417D+00
              MO Center= -2.1D-05, -3.8D-07, -2.8D-09, r^2= 1.7D+00
   Bfn.  Coefficient  Atom+Function         Bfn.  Coefficient  Atom+Function  
  ----- ------------  ---------------      ----- ------------  ---------------
    27      1.604626  2 C  dxz               12      1.053948  1 O  dxz        
    42      1.053899  3 O  dxz               26     -1.018654  2 C  dxy        
    11     -0.669071  1 O  dxy               41     -0.669040  3 O  dxy        
     9      0.217731  1 O  pz                39     -0.217714  3 O  pz         
     8     -0.138277  1 O  py                38      0.138266  3 O  py         

 Vector   40  Occ=0.000000D+00  E= 2.733417D+00
              MO Center= -2.1D-05, -3.6D-07,  1.5D-08, r^2= 1.7D+00
   Bfn.  Coefficient  Atom+Function         Bfn.  Coefficient  Atom+Function  
  ----- ------------  ---------------      ----- ------------  ---------------
    26      1.603657  2 C  dxy               11      1.053311  1 O  dxy        
    41      1.053262  3 O  dxy               27      1.019271  2 C  dxz        
    12      0.669476  1 O  dxz               42      0.669445  3 O  dxz        
     8      0.217688  1 O  py                38     -0.217670  3 O  py         
     9      0.138305  1 O  pz                39     -0.138294  3 O  pz         

 Vector   41  Occ=0.000000D+00  E= 2.762515D+00
              MO Center= -9.3D-05, -1.9D-06, -1.7D-08, r^2= 2.3D+00
   Bfn.  Coefficient  Atom+Function         Bfn.  Coefficient  Atom+Function  
  ----- ------------  ---------------      ----- ------------  ---------------
     6      2.823521  1 O  s                 36     -2.823350  3 O  s          
    22      2.190803  2 C  px                18      1.452732  2 C  px         
     7      1.347117  1 O  px                37      1.347012  3 O  px         
     2     -0.879960  1 O  s                 32      0.879893  3 O  s          
    10      0.866320  1 O  dxx               40     -0.866234  3 O  dxx        

 Vector   42  Occ=0.000000D+00  E= 2.947661D+00
              MO Center= -1.0D-05, -2.2D-07, -2.1D-09, r^2= 2.1D+00
   Bfn.  Coefficient  Atom+Function         Bfn.  Coefficient  Atom+Function  
  ----- ------------  ---------------      ----- ------------  ---------------
    17      1.956881  2 C  s                 21      1.800510  2 C  s          
     6     -1.364314  1 O  s                 36     -1.364378  3 O  s          
    10     -1.048950  1 O  dxx               40     -1.048923  3 O  dxx        
     7     -1.008354  1 O  px                28     -1.008149  2 C  dyy        
    30     -1.008956  2 C  dzz               37      1.008364  3 O  px         

 Vector   43  Occ=0.000000D+00  E= 3.598196D+00
              MO Center=  5.9D-05,  1.1D-06,  1.7D-10, r^2= 2.8D+00
   Bfn.  Coefficient  Atom+Function         Bfn.  Coefficient  Atom+Function  
  ----- ------------  ---------------      ----- ------------  ---------------
     6      3.450945  1 O  s                 36      3.451061  3 O  s          
    21     -2.083851  2 C  s                 13     -1.279099  1 O  dyy        
    15     -1.279234  1 O  dzz               43     -1.279145  3 O  dyy        
    45     -1.279281  3 O  dzz               10     -0.943069  1 O  dxx        
    40     -0.943113  3 O  dxx                7      0.860496  1 O  px         

 Vector   44  Occ=0.000000D+00  E= 4.225907D+00
              MO Center= -2.7D-05, -3.5D-07, -2.0D-10, r^2= 1.2D+00
   Bfn.  Coefficient  Atom+Function         Bfn.  Coefficient  Atom+Function  
  ----- ------------  ---------------      ----- ------------  ---------------
    25      2.965822  2 C  dxx               17     -2.609724  2 C  s          
    28      1.444877  2 C  dyy               30      1.444264  2 C  dzz        
     7     -0.770070  1 O  px                37      0.770442  3 O  px         
    10     -0.753683  1 O  dxx               40     -0.753448  3 O  dxx        
     6     -0.723342  1 O  s                 36     -0.724883  3 O  s          

 Vector   45  Occ=0.000000D+00  E= 4.319495D+00
              MO Center= -1.7D-05, -1.7D-07, -2.3D-09, r^2= 3.0D+00
   Bfn.  Coefficient  Atom+Function         Bfn.  Coefficient  Atom+Function  
  ----- ------------  ---------------      ----- ------------  ---------------
     6      7.782476  1 O  s                 36     -7.781972  3 O  s          
    22      5.332776  2 C  px                 7      1.861308  1 O  px         
    37      1.861103  3 O  px                13     -1.594983  1 O  dyy        
    15     -1.595105  1 O  dzz               43      1.594880  3 O  dyy        
    45      1.595001  3 O  dzz               10     -1.293715  1 O  dxx        


     ---------------------------------------------
      Total Density - Mulliken Population Analysis
     ---------------------------------------------

    Atom       Charge   Shell Charges
 -----------   ------   -------------------------------------------------------
    1 O    8     8.37   1.99  0.95  2.76  1.04  1.64  0.00
    2 C    6     5.26   1.99  0.76  1.75  0.27  0.44  0.05
    3 O    8     8.37   1.99  0.95  2.76  1.04  1.64  0.00

     -------------------------------------------
      Total Density - Lowdin Population Analysis
     -------------------------------------------

    Atom       Charge   Shell Charges
 -----------   ------   -------------------------------------------------------
    1 O    8     8.19   1.98  0.76  2.60  0.49  1.81  0.56
    2 C    6     5.62   1.97  0.38  1.53  0.26  0.93  0.55
    3 O    8     8.19   1.98  0.76  2.60  0.49  1.81  0.56
 Line search: 
     step= 1.00 grad=-9.7D-02 hess= 9.3D-03 energy=   -188.533963 mode=restrict
 new step= 4.00                   predicted energy=   -188.685730

          --------
          Step   1
          --------

                                 NWChem DFT Module
                                 -----------------


                                     cpd00016



  Caching 1-el integrals 
   Time after variat. SCF:      5.2

     ---------------------------------------------
      Total Density - Mulliken Population Analysis
     ---------------------------------------------

    Atom       Charge   Shell Charges
 -----------   ------   -------------------------------------------------------
    1 O    8     8.38   1.99  0.94  2.87  1.00  1.57  0.00
    2 C    6     5.23   2.00  0.73  1.82  0.16  0.42  0.11
    3 O    8     8.38   1.99  0.94  2.87  1.00  1.57  0.00
   Time prior to 1st pass:      5.2


         Total DFT energy =     -188.266992603114
      One electron energy =     -396.559614616186
           Coulomb energy =      160.533775533230
    Exchange-Corr. energy =      -23.096209639596
 Nuclear repulsion energy =       70.855056119438

 Numeric. integr. density =       22.000000176593

     Total iterative time =      1.3s



                       DFT Final Molecular Orbital Analysis
                       ------------------------------------

 Vector    1  Occ=2.000000D+00  E=-1.918223D+01
              MO Center= -7.7D-01, -1.5D-02,  1.5D-09, r^2= 3.4D-01
   Bfn.  Coefficient  Atom+Function         Bfn.  Coefficient  Atom+Function  
  ----- ------------  ---------------      ----- ------------  ---------------
     1      0.942437  1 O  s                 31      0.312037  3 O  s          
     2      0.027134  1 O  s          

 Vector    2  Occ=2.000000D+00  E=-1.918218D+01
              MO Center=  7.7D-01,  1.5D-02,  1.4D-09, r^2= 3.4D-01
   Bfn.  Coefficient  Atom+Function         Bfn.  Coefficient  Atom+Function  
  ----- ------------  ---------------      ----- ------------  ---------------
    31      0.942216  3 O  s                  1     -0.311368  1 O  s          
    32      0.025617  3 O  s          

 Vector    3  Occ=2.000000D+00  E=-1.031024D+01
              MO Center= -3.5D-05, -1.1D-09, -2.7D-09, r^2= 2.8D-02
   Bfn.  Coefficient  Atom+Function         Bfn.  Coefficient  Atom+Function  
  ----- ------------  ---------------      ----- ------------  ---------------
    16      0.991400  2 C  s                 17      0.058041  2 C  s          

 Vector    4  Occ=2.000000D+00  E=-1.254584D+00
              MO Center= -2.2D-03, -4.4D-05,  1.0D-08, r^2= 7.5D-01
   Bfn.  Coefficient  Atom+Function         Bfn.  Coefficient  Atom+Function  
  ----- ------------  ---------------      ----- ------------  ---------------
    17      0.307976  2 C  s                  2      0.280350  1 O  s          
    32      0.279280  3 O  s                  6      0.235584  1 O  s          
    36      0.235172  3 O  s                 16     -0.214858  2 C  s          
     3      0.158727  1 O  px                33     -0.158108  3 O  px         
     1     -0.139759  1 O  s                 31     -0.139224  3 O  s          

 Vector    5  Occ=2.000000D+00  E=-1.228625D+00
              MO Center=  2.2D-03,  4.5D-05, -1.3D-08, r^2= 7.3D-01
   Bfn.  Coefficient  Atom+Function         Bfn.  Coefficient  Atom+Function  
  ----- ------------  ---------------      ----- ------------  ---------------
    18      0.435530  2 C  px                 2     -0.303426  1 O  s          
    32      0.304414  3 O  s                  3     -0.171968  1 O  px         
    33     -0.172500  3 O  px                 1      0.150421  1 O  s          
    31     -0.150904  3 O  s                 36      0.133222  3 O  s          
     6     -0.132375  1 O  s                 22      0.032041  2 C  px         

 Vector    6  Occ=2.000000D+00  E=-6.045429D-01
              MO Center= -2.6D-04, -4.9D-06, -2.5D-07, r^2= 1.0D+00
   Bfn.  Coefficient  Atom+Function         Bfn.  Coefficient  Atom+Function  
  ----- ------------  ---------------      ----- ------------  ---------------
    20      0.343826  2 C  pz                 5      0.279408  1 O  pz         
    35      0.279270  3 O  pz                19     -0.259675  2 C  py         
     4     -0.211023  1 O  py                34     -0.210919  3 O  py         
     9      0.125844  1 O  pz                39      0.125781  3 O  pz         
     8     -0.095044  1 O  py                38     -0.094996  3 O  py         

 Vector    7  Occ=2.000000D+00  E=-6.045429D-01
              MO Center= -2.6D-04, -4.9D-06,  1.6D-07, r^2= 1.0D+00
   Bfn.  Coefficient  Atom+Function         Bfn.  Coefficient  Atom+Function  
  ----- ------------  ---------------      ----- ------------  ---------------
    19      0.343757  2 C  py                 4      0.279352  1 O  py         
    34      0.279213  3 O  py                20      0.259727  2 C  pz         
     5      0.211065  1 O  pz                35      0.210961  3 O  pz         
     8      0.125819  1 O  py                38      0.125756  3 O  py         
     9      0.095063  1 O  pz                39      0.095015  3 O  pz         

 Vector    8  Occ=2.000000D+00  E=-5.166912D-01
              MO Center= -4.6D-02, -9.3D-04,  2.3D-08, r^2= 1.9D+00
   Bfn.  Coefficient  Atom+Function         Bfn.  Coefficient  Atom+Function  
  ----- ------------  ---------------      ----- ------------  ---------------
     3      0.391894  1 O  px                33     -0.376084  3 O  px         
     6     -0.311942  1 O  s                 36     -0.298926  3 O  s          
     7      0.215112  1 O  px                17      0.213080  2 C  s          
    37     -0.208951  3 O  px                 2     -0.189512  1 O  s          
    32     -0.182916  3 O  s                 16     -0.139059  2 C  s          

 Vector    9  Occ=2.000000D+00  E=-5.158020D-01
              MO Center=  4.6D-02,  9.3D-04,  4.6D-08, r^2= 1.9D+00
   Bfn.  Coefficient  Atom+Function         Bfn.  Coefficient  Atom+Function  
  ----- ------------  ---------------      ----- ------------  ---------------
    33      0.410293  3 O  px                 3      0.395263  1 O  px         
    36      0.337764  3 O  s                  6     -0.325767  1 O  s          
    18     -0.310240  2 C  px                32      0.171884  3 O  s          
     2     -0.164573  1 O  s                 37      0.161383  3 O  px         
     7      0.153067  1 O  px                31     -0.074073  3 O  s          

 Vector   10  Occ=2.000000D+00  E=-3.736828D-01
              MO Center=  3.1D-04,  5.9D-06, -4.7D-08, r^2= 1.4D+00
   Bfn.  Coefficient  Atom+Function         Bfn.  Coefficient  Atom+Function  
  ----- ------------  ---------------      ----- ------------  ---------------
     5      0.473641  1 O  pz                35     -0.473772  3 O  pz         
     9      0.318528  1 O  pz                39     -0.318597  3 O  pz         
    27     -0.123263  2 C  dxz                4      0.062379  1 O  py         
    34     -0.062396  3 O  py                 8      0.041950  1 O  py         
    38     -0.041959  3 O  py                12      0.040416  1 O  dxz        

 Vector   11  Occ=2.000000D+00  E=-3.736828D-01
              MO Center=  3.1D-04,  6.1D-06, -3.2D-08, r^2= 1.4D+00
   Bfn.  Coefficient  Atom+Function         Bfn.  Coefficient  Atom+Function  
  ----- ------------  ---------------      ----- ------------  ---------------
     4      0.473545  1 O  py                34     -0.473676  3 O  py         
     8      0.318464  1 O  py                38     -0.318533  3 O  py         
    26     -0.123189  2 C  dxy                5     -0.062391  1 O  pz         
    35      0.062409  3 O  pz                 9     -0.041959  1 O  pz         
    39      0.041968  3 O  pz                11      0.040392  1 O  dxy        

 Vector   12  Occ=0.000000D+00  E= 1.515914D-01
              MO Center= -4.3D-05,  6.9D-06, -1.1D-06, r^2= 2.3D+00
   Bfn.  Coefficient  Atom+Function         Bfn.  Coefficient  Atom+Function  
  ----- ------------  ---------------      ----- ------------  ---------------
    21      3.494820  2 C  s                  6     -1.711863  1 O  s          
    36     -1.711416  3 O  s                  7     -0.669058  1 O  px         
    37      0.669074  3 O  px                 3     -0.135625  1 O  px         
    33      0.135675  3 O  px                 2     -0.123289  1 O  s          
    32     -0.123301  3 O  s                 17      0.097241  2 C  s          

 Vector   13  Occ=0.000000D+00  E= 2.148849D-01
              MO Center= -1.6D-05, -4.8D-06, -3.8D-06, r^2= 1.6D+00
   Bfn.  Coefficient  Atom+Function         Bfn.  Coefficient  Atom+Function  
  ----- ------------  ---------------      ----- ------------  ---------------
    23      0.858283  2 C  py                24      0.642056  2 C  pz         
     8     -0.487038  1 O  py                38     -0.486977  3 O  py         
    19      0.412953  2 C  py                 9     -0.364339  1 O  pz         
[...]
  ----- ------------  ---------------      ----- ------------  ---------------
    17     -1.075423  2 C  s                  7      1.004778  1 O  px         
    37     -1.004791  3 O  px                 2      0.378021  1 O  s          
    32      0.378009  3 O  s                 25     -0.343804  2 C  dxx        
     3     -0.327382  1 O  px                33      0.327402  3 O  px         
     6     -0.255262  1 O  s                 36     -0.255258  3 O  s          

 Vector   21  Occ=0.000000D+00  E= 8.741943D-01
              MO Center=  1.8D-05, -9.1D-07,  6.9D-08, r^2= 2.8D+00
   Bfn.  Coefficient  Atom+Function         Bfn.  Coefficient  Atom+Function  
  ----- ------------  ---------------      ----- ------------  ---------------
     8      0.809574  1 O  py                38     -0.809613  3 O  py         
     4     -0.646755  1 O  py                34      0.646767  3 O  py         
    26      0.228917  2 C  dxy                9     -0.053214  1 O  pz         
    39      0.053216  3 O  pz                 5      0.042512  1 O  pz         
    35     -0.042512  3 O  pz         

 Vector   22  Occ=0.000000D+00  E= 8.741943D-01
              MO Center=  1.8D-05,  1.1D-07,  5.0D-08, r^2= 2.8D+00
   Bfn.  Coefficient  Atom+Function         Bfn.  Coefficient  Atom+Function  
  ----- ------------  ---------------      ----- ------------  ---------------
     9      0.809737  1 O  pz                39     -0.809776  3 O  pz         
     5     -0.646885  1 O  pz                35      0.646897  3 O  pz         
    27      0.229055  2 C  dxz                8      0.053203  1 O  py         
    38     -0.053206  3 O  py                 4     -0.042503  1 O  py         
    34      0.042504  3 O  py         

 Vector   23  Occ=0.000000D+00  E= 1.037744D+00
              MO Center= -1.8D-05,  3.8D-07, -3.0D-08, r^2= 2.0D+00
   Bfn.  Coefficient  Atom+Function         Bfn.  Coefficient  Atom+Function  
  ----- ------------  ---------------      ----- ------------  ---------------
     6      1.017219  1 O  s                 36     -1.017190  3 O  s          
    22      0.952654  2 C  px                 3      0.738281  1 O  px         
    33      0.738286  3 O  px                18      0.554228  2 C  px         
     7     -0.404200  1 O  px                37     -0.404193  3 O  px         
    10     -0.162741  1 O  dxx               40      0.162763  3 O  dxx        

 Vector   24  Occ=0.000000D+00  E= 1.041660D+00
              MO Center= -3.3D-05, -7.5D-07, -2.9D-07, r^2= 3.1D+00
   Bfn.  Coefficient  Atom+Function         Bfn.  Coefficient  Atom+Function  
  ----- ------------  ---------------      ----- ------------  ---------------
     9      1.041747  1 O  pz                39      1.041743  3 O  pz         
    24     -0.980530  2 C  pz                 5     -0.600639  1 O  pz         
    35     -0.600622  3 O  pz                 8     -0.399704  1 O  py         
    38     -0.399702  3 O  py                23      0.376216  2 C  py         
     4      0.230457  1 O  py                34      0.230450  3 O  py         

 Vector   25  Occ=0.000000D+00  E= 1.041660D+00
              MO Center= -3.3D-05, -1.1D-07,  2.9D-07, r^2= 3.1D+00
   Bfn.  Coefficient  Atom+Function         Bfn.  Coefficient  Atom+Function  
  ----- ------------  ---------------      ----- ------------  ---------------
     8      1.041537  1 O  py                38      1.041533  3 O  py         
    23     -0.980332  2 C  py                 4     -0.600518  1 O  py         
    34     -0.600501  3 O  py                 9      0.399784  1 O  pz         
    39      0.399783  3 O  pz                24     -0.376292  2 C  pz         
     5     -0.230503  1 O  pz                35     -0.230497  3 O  pz         

 Vector   26  Occ=0.000000D+00  E= 1.377428D+00
              MO Center= -1.9D-05, -1.3D-06,  3.3D-08, r^2= 2.5D+00
   Bfn.  Coefficient  Atom+Function         Bfn.  Coefficient  Atom+Function  
  ----- ------------  ---------------      ----- ------------  ---------------
    21     -3.741697  2 C  s                  6      3.540570  1 O  s          
    36      3.540592  3 O  s                  7      1.365272  1 O  px         
    37     -1.365264  3 O  px                 2     -1.157004  1 O  s          
    32     -1.156994  3 O  s                 10     -0.394027  1 O  dxx        
    17     -0.395474  2 C  s                 40     -0.394013  3 O  dxx        

 Vector   27  Occ=0.000000D+00  E= 1.393880D+00
              MO Center=  4.5D-05,  1.1D-06, -3.6D-09, r^2= 1.1D+00
   Bfn.  Coefficient  Atom+Function         Bfn.  Coefficient  Atom+Function  
  ----- ------------  ---------------      ----- ------------  ---------------
    29      1.270032  2 C  dyz               14      0.671270  1 O  dyz        
    44      0.671331  3 O  dyz               27     -0.025496  2 C  dxz        

 Vector   28  Occ=0.000000D+00  E= 1.393880D+00
              MO Center=  4.5D-05,  1.1D-06, -3.6D-09, r^2= 1.1D+00
   Bfn.  Coefficient  Atom+Function         Bfn.  Coefficient  Atom+Function  
  ----- ------------  ---------------      ----- ------------  ---------------
    28      0.634888  2 C  dyy               30     -0.635144  2 C  dzz        
    13      0.335568  1 O  dyy               15     -0.335703  1 O  dzz        
    43      0.335598  3 O  dyy               45     -0.335733  3 O  dzz        
    26     -0.025491  2 C  dxy        

 Vector   29  Occ=0.000000D+00  E= 1.406404D+00
              MO Center= -1.3D-05, -9.2D-07, -8.9D-08, r^2= 1.4D+00
   Bfn.  Coefficient  Atom+Function         Bfn.  Coefficient  Atom+Function  
  ----- ------------  ---------------      ----- ------------  ---------------
    26      0.919539  2 C  dxy               11     -0.729155  1 O  dxy        
    41     -0.729129  3 O  dxy                4      0.167907  1 O  py         
    34     -0.167926  3 O  py                27      0.115565  2 C  dxz        
    12     -0.091638  1 O  dxz               42     -0.091635  3 O  dxz        
     8      0.042738  1 O  py                38     -0.042734  3 O  py         

 Vector   30  Occ=0.000000D+00  E= 1.406404D+00
              MO Center= -1.3D-05, -2.3D-07,  1.3D-07, r^2= 1.4D+00
   Bfn.  Coefficient  Atom+Function         Bfn.  Coefficient  Atom+Function  
  ----- ------------  ---------------      ----- ------------  ---------------
    27      0.920095  2 C  dxz               12     -0.729596  1 O  dxz        
    42     -0.729570  3 O  dxz                5      0.167941  1 O  pz         
    35     -0.167959  3 O  pz                26     -0.115495  2 C  dxy        
    11      0.091582  1 O  dxy               41      0.091579  3 O  dxy        
     9      0.042747  1 O  pz                39     -0.042743  3 O  pz         

 Vector   31  Occ=0.000000D+00  E= 1.726277D+00
              MO Center= -6.3D-05, -1.5D-06,  1.0D-09, r^2= 2.0D+00
   Bfn.  Coefficient  Atom+Function         Bfn.  Coefficient  Atom+Function  
  ----- ------------  ---------------      ----- ------------  ---------------
    14      1.224728  1 O  dyz               44     -1.224672  3 O  dyz        

 Vector   32  Occ=0.000000D+00  E= 1.726277D+00
              MO Center= -6.3D-05, -1.5D-06,  1.0D-09, r^2= 2.0D+00
   Bfn.  Coefficient  Atom+Function         Bfn.  Coefficient  Atom+Function  
  ----- ------------  ---------------      ----- ------------  ---------------
    13      0.612241  1 O  dyy               15     -0.612487  1 O  dzz        
    43     -0.612213  3 O  dyy               45      0.612459  3 O  dzz        

 Vector   33  Occ=0.000000D+00  E= 1.833531D+00
              MO Center=  2.1D-05,  1.8D-06, -3.4D-08, r^2= 2.8D+00
   Bfn.  Coefficient  Atom+Function         Bfn.  Coefficient  Atom+Function  
  ----- ------------  ---------------      ----- ------------  ---------------
     6      6.047892  1 O  s                 36     -6.048050  3 O  s          
    22      5.292998  2 C  px                 2     -1.628895  1 O  s          
    32      1.628908  3 O  s                  7      1.401093  1 O  px         
    37      1.401054  3 O  px                10     -0.493257  1 O  dxx        
    40      0.493257  3 O  dxx               13     -0.167989  1 O  dyy        

 Vector   34  Occ=0.000000D+00  E= 2.027614D+00
              MO Center=  1.8D-05,  8.2D-07, -2.0D-08, r^2= 1.5D+00
   Bfn.  Coefficient  Atom+Function         Bfn.  Coefficient  Atom+Function  
  ----- ------------  ---------------      ----- ------------  ---------------
    29      1.229381  2 C  dyz               14     -1.053974  1 O  dyz        
    44     -1.054007  3 O  dyz        

 Vector   35  Occ=0.000000D+00  E= 2.027614D+00
              MO Center=  1.8D-05,  8.2D-07, -2.0D-08, r^2= 1.5D+00
   Bfn.  Coefficient  Atom+Function         Bfn.  Coefficient  Atom+Function  
  ----- ------------  ---------------      ----- ------------  ---------------
    28      0.614567  2 C  dyy               30     -0.614814  2 C  dzz        
    13     -0.526881  1 O  dyy               15      0.527093  1 O  dzz        
    43     -0.526897  3 O  dyy               45      0.527110  3 O  dzz        

 Vector   36  Occ=0.000000D+00  E= 2.121058D+00
              MO Center= -4.8D-06, -4.8D-07,  3.2D-08, r^2= 1.9D+00
   Bfn.  Coefficient  Atom+Function         Bfn.  Coefficient  Atom+Function  
  ----- ------------  ---------------      ----- ------------  ---------------
    11      1.367516  1 O  dxy               41     -1.367522  3 O  dxy        
    19     -0.492851  2 C  py                 8      0.433880  1 O  py         
    38      0.433892  3 O  py                23     -0.420688  2 C  py         
     4     -0.138800  1 O  py                34     -0.138800  3 O  py         
    12      0.088518  1 O  dxz               42     -0.088518  3 O  dxz        

 Vector   37  Occ=0.000000D+00  E= 2.121058D+00
              MO Center= -4.8D-06, -6.8D-07, -1.8D-08, r^2= 1.9D+00
   Bfn.  Coefficient  Atom+Function         Bfn.  Coefficient  Atom+Function  
  ----- ------------  ---------------      ----- ------------  ---------------
    12      1.368343  1 O  dxz               42     -1.368349  3 O  dxz        
    20     -0.492950  2 C  pz                 9      0.433967  1 O  pz         
    39      0.433979  3 O  pz                24     -0.420773  2 C  pz         
     5     -0.138828  1 O  pz                35     -0.138828  3 O  pz         
    11     -0.088464  1 O  dxy               41      0.088465  3 O  dxy        

 Vector   38  Occ=0.000000D+00  E= 2.720750D+00
              MO Center= -1.5D-04, -3.2D-06,  6.9D-09, r^2= 1.8D+00
   Bfn.  Coefficient  Atom+Function         Bfn.  Coefficient  Atom+Function  
  ----- ------------  ---------------      ----- ------------  ---------------
     6      1.611815  1 O  s                 36      1.611461  3 O  s          
     7      1.189118  1 O  px                37     -1.188941  3 O  px         
    21     -1.152331  2 C  s                 17     -0.870170  2 C  s          
     2     -0.864250  1 O  s                 32     -0.864178  3 O  s          
    10      0.760345  1 O  dxx               40      0.760178  3 O  dxx        

 Vector   39  Occ=0.000000D+00  E= 2.915227D+00
              MO Center=  9.9D-05,  2.4D-06,  8.6D-08, r^2= 2.2D+00
   Bfn.  Coefficient  Atom+Function         Bfn.  Coefficient  Atom+Function  
  ----- ------------  ---------------      ----- ------------  ---------------
     6      2.749539  1 O  s                 36     -2.749788  3 O  s          
    18      1.802289  2 C  px                22      1.757548  2 C  px         
     7      1.324234  1 O  px                37      1.324404  3 O  px         
    10      0.976219  1 O  dxx               40     -0.976313  3 O  dxx        
     2     -0.657371  1 O  s                 32      0.657518  3 O  s          

 Vector   40  Occ=0.000000D+00  E= 2.954008D+00
              MO Center=  1.8D-05,  5.0D-07, -6.9D-08, r^2= 1.6D+00
   Bfn.  Coefficient  Atom+Function         Bfn.  Coefficient  Atom+Function  
  ----- ------------  ---------------      ----- ------------  ---------------
    27      2.281633  2 C  dxz               12      1.433447  1 O  dxz        
    42      1.433519  3 O  dxz                9      0.308111  1 O  pz         
    39     -0.308139  3 O  pz                 5      0.136936  1 O  pz         
    35     -0.136959  3 O  pz                26     -0.109227  2 C  dxy        
    11     -0.068622  1 O  dxy               41     -0.068626  3 O  dxy        

 Vector   41  Occ=0.000000D+00  E= 2.954008D+00
              MO Center=  1.8D-05, -8.2D-08, -2.9D-08, r^2= 1.6D+00
   Bfn.  Coefficient  Atom+Function         Bfn.  Coefficient  Atom+Function  
  ----- ------------  ---------------      ----- ------------  ---------------
    26      2.280254  2 C  dxy               11      1.432580  1 O  dxy        
    41      1.432652  3 O  dxy                8      0.308049  1 O  py         
    38     -0.308076  3 O  py                 4      0.136908  1 O  py         
    34     -0.136932  3 O  py                27      0.109293  2 C  dxz        
    12      0.068664  1 O  dxz               42      0.068667  3 O  dxz        

 Vector   42  Occ=0.000000D+00  E= 3.049319D+00
              MO Center=  8.0D-05,  1.5D-06,  4.3D-10, r^2= 1.9D+00
   Bfn.  Coefficient  Atom+Function         Bfn.  Coefficient  Atom+Function  
  ----- ------------  ---------------      ----- ------------  ---------------
    17      2.731868  2 C  s                 21      1.526055  2 C  s          
    10     -1.156581  1 O  dxx               28     -1.157099  2 C  dyy        
    30     -1.158000  2 C  dzz               40     -1.156672  3 O  dxx        
    25      1.077921  2 C  dxx                6     -1.020969  1 O  s          
    36     -1.021119  3 O  s                  7     -0.871950  1 O  px         

 Vector   43  Occ=0.000000D+00  E= 3.741703D+00
              MO Center= -6.4D-05, -1.6D-06,  1.1D-09, r^2= 2.5D+00
   Bfn.  Coefficient  Atom+Function         Bfn.  Coefficient  Atom+Function  
  ----- ------------  ---------------      ----- ------------  ---------------
     6      4.363995  1 O  s                 36      4.363878  3 O  s          
    21     -3.101123  2 C  s                 13     -1.373034  1 O  dyy        
    15     -1.373207  1 O  dzz               43     -1.372984  3 O  dyy        
    45     -1.373158  3 O  dzz                7      1.193863  1 O  px         
    37     -1.193871  3 O  px                17     -1.055512  2 C  s          

 Vector   44  Occ=0.000000D+00  E= 4.388942D+00
              MO Center=  8.1D-06,  7.1D-07,  2.3D-09, r^2= 1.0D+00
   Bfn.  Coefficient  Atom+Function         Bfn.  Coefficient  Atom+Function  
  ----- ------------  ---------------      ----- ------------  ---------------
    25      3.220547  2 C  dxx               17     -1.949476  2 C  s          
     6     -1.511850  1 O  s                 36     -1.509506  3 O  s          
    28      1.284448  2 C  dyy               30      1.283667  2 C  dzz        
     7     -1.001498  1 O  px                37      1.001019  3 O  px         
    21      0.972413  2 C  s                  3     -0.630069  1 O  px         

 Vector   45  Occ=0.000000D+00  E= 4.450004D+00
              MO Center=  5.0D-05,  1.4D-06, -5.4D-09, r^2= 2.7D+00
   Bfn.  Coefficient  Atom+Function         Bfn.  Coefficient  Atom+Function  
  ----- ------------  ---------------      ----- ------------  ---------------
     6      8.348473  1 O  s                 36     -8.349381  3 O  s          
    22      5.545441  2 C  px                 7      1.669747  1 O  px         
    37      1.670086  3 O  px                13     -1.601262  1 O  dyy        
    15     -1.601327  1 O  dzz               43      1.601445  3 O  dyy        
    45      1.601509  3 O  dzz               10     -1.441389  1 O  dxx        


     ---------------------------------------------
      Total Density - Mulliken Population Analysis
     ---------------------------------------------

    Atom       Charge   Shell Charges
 -----------   ------   -------------------------------------------------------
    1 O    8     8.36   1.99  0.93  2.86  0.98  1.59  0.01
    2 C    6     5.28   1.99  0.73  1.93  0.13  0.43  0.06
    3 O    8     8.36   1.99  0.93  2.86  0.98  1.59  0.01

     -------------------------------------------
      Total Density - Lowdin Population Analysis
     -------------------------------------------

    Atom       Charge   Shell Charges
 -----------   ------   -------------------------------------------------------
    1 O    8     8.15   1.98  0.72  2.69  0.46  1.76  0.55
    2 C    6     5.71   1.96  0.36  1.67  0.21  0.89  0.61
    3 O    8     8.15   1.98  0.72  2.69  0.46  1.76  0.55

          -------------
          Dipole Moment
          -------------

 Center of charge (in au) is the expansion point
         X =      -0.0000017 Y =      -0.0000001 Z =       0.0000000

   Dipole moment        0.0000695479 A.U.
             DMX        0.0000695163 DMXEFC        0.0000000000
             DMY        0.0000020845 DMYEFC        0.0000000000
             DMZ        0.0000002307 DMZEFC        0.0000000000
   -EFC- dipole         0.0000000000 A.U.
   Total dipole         0.0000695479 A.U.

   Dipole moment        0.0001767744 Debye(s)
             DMX        0.0001766940 DMXEFC        0.0000000000
             DMY        0.0000052984 DMYEFC        0.0000000000
             DMZ        0.0000005864 DMZEFC        0.0000000000
   -EFC- dipole         0.0000000000 DEBYE(S)
   Total dipole         0.0001767744 DEBYE(S)

 1 a.u. = 2.541766 Debyes 


                                NWChem Input Module
                                -------------------




                                     CITATION
                                     --------
                Please cite the following reference when publishing
                           results obtained with NWChem:

                 M. Valiev, E.J. Bylaska, N. Govind, K. Kowalski,
              T.P. Straatsma, H.J.J. van Dam, D. Wang, J. Nieplocha,
                        E. Apra, T.L. Windus, W.A. de Jong
                 "NWChem: a comprehensive and scalable open-source
                  solution for large scale molecular simulations"
                      Comput. Phys. Commun. 181, 1477 (2010)
                           doi:10.1016/j.cpc.2010.04.018

                                      AUTHORS
                                      -------
          E. Apra, E. J. Bylaska, W. A. de Jong, N. Govind, K. Kowalski,
       T. P. Straatsma, M. Valiev, H. J. J. van Dam, D. Wang, T. L. Windus,
        J. Hammond, J. Autschbach, K. Bhaskaran-Nair, J. Brabec, K. Lopata,
    S. A. Fischer, S. Krishnamoorthy, M. Jacquelin, W. Ma, M. Klemm, O. Villa,
      Y. Chen, V. Anisimov, F. Aquino, S. Hirata, M. T. Hackler, V. Konjkov,
            D. Mejia-Rodriguez, T. Risthaus, M. Malagoli, A. Marenich,
   A. Otero-de-la-Roza, J. Mullin, P. Nichols, R. Peverati, J. Pittner, Y. Zhao,
        P.-D. Fan, A. Fonari, M. J. Williamson, R. J. Harrison, J. R. Rehr,
      M. Dupuis, D. Silverstein, D. M. A. Smith, J. Nieplocha, V. Tipparaju,
    M. Krishnan, B. E. Van Kuiken, A. Vazquez-Mayagoitia, L. Jensen, M. Swart,
      Q. Wu, T. Van Voorhis, A. A. Auer, M. Nooijen, L. D. Crosby, E. Brown,
      G. Cisneros, G. I. Fann, H. Fruchtl, J. Garza, K. Hirao, R. A. Kendall,
      J. A. Nichols, K. Tsemekhman, K. Wolinski, J. Anchell, D. E. Bernholdt,
      P. Borowski, T. Clark, D. Clerc, H. Dachsel, M. J. O. Deegan, K. Dyall,
    D. Elwood, E. Glendening, M. Gutowski, A. C. Hess, J. Jaffe, B. G. Johnson,
     J. Ju, R. Kobayashi, R. Kutteh, Z. Lin, R. Littlefield, X. Long, B. Meng,
      T. Nakajima, S. Niu, L. Pollack, M. Rosing, K. Glaesemann, G. Sandrone,
      M. Stave, H. Taylor, G. Thomas, J. H. van Lenthe, A. T. Wong, Z. Zhang.

 Total times  cpu:       21.9s     wall:       30.8s
