--------------------------------------------------------------------------
[[4722,1],0]: A high-performance Open MPI point-to-point messaging module
was unable to find any relevant network interfaces:

Module: OpenFabrics (openib)
  Host: 2274251cca31

Another transport will be used instead, although this may result in
lower performance.
--------------------------------------------------------------------------
 argument  1 = cpd08316.nw



============================== echo of input deck ==============================
title "cpd08316"
start cpd08316

memory global 1600 mb heap 100 mb stack 600 mb

permanent_dir /kb/module/work/tmp/simulation/cpd08316/dft
#scratch_dir /scratch

echo
print low

charge 0
geometry noautoz noautosym
load /kb/module/work/tmp/simulation/cpd08316/dft/cpd08316.xyz
end
basis
* library 6-31G*
end

driver
 maxiter 50
xyz cpd08316_geom
end

set lindep:n_dep 0

dft
  maxiter 100
  xc b3lyp
  mulliken
  print "mulliken ao"
  print "final vectors analysis"
end

task dft optimize ignore
property
 dipole
end

task dft property
================================================================================


                                         
                                         


              Northwest Computational Chemistry Package (NWChem) 6.8
              ------------------------------------------------------


                    Environmental Molecular Sciences Laboratory
                       Pacific Northwest National Laboratory
                                Richland, WA 99352

                              Copyright (c) 1994-2017
                       Pacific Northwest National Laboratory
                            Battelle Memorial Institute

             NWChem is an open-source computational chemistry package
                        distributed under the terms of the
                      Educational Community License (ECL) 2.0
             A copy of the license is included with this distribution
                              in the LICENSE.TXT file

                                  ACKNOWLEDGMENT
                                  --------------

            This software and its documentation were developed at the
            EMSL at Pacific Northwest National Laboratory, a multiprogram
            national laboratory, operated for the U.S. Department of Energy
            by Battelle under Contract Number DE-AC05-76RL01830. Support
            for this work was provided by the Department of Energy Office
            of Biological and Environmental Research, Office of Basic
            Energy Sciences, and the Office of Advanced Scientific Computing.


           Job information
           ---------------

    hostname        = 2274251cca31
    program         = nwchem
    date            = Sun Mar  8 23:29:39 2020

    compiled        = Sat_Mar_07_21:45:49_2020
    source          = /codes/nwchem-6.8.1
    nwchem branch   = 6.8.1
    nwchem revision = v6.8-133-ge032219
    ga revision     = 5.6.5
    use scalapack   = F
    input           = cpd08316.nw
    prefix          = cpd08316.
    data base       = /kb/module/work/tmp/simulation/cpd08316/dft/cpd08316.db
    status          = startup
    nproc           =        2
    time left       =     -1s



           Memory information
           ------------------

    heap     =   13107200 doubles =    100.0 Mbytes
    stack    =   78643197 doubles =    600.0 Mbytes
    global   =  209715200 doubles =   1600.0 Mbytes (distinct from heap & stack)
    total    =  301465597 doubles =   2300.0 Mbytes
    verify   = yes
    hardfail = no 


           Directory information
           ---------------------

  0 permanent = /kb/module/work/tmp/simulation/cpd08316/dft
  0 scratch   = .




                                NWChem Input Module
                                -------------------


                                     cpd08316
                                     --------

 Scaling coordinates for geometry "geometry" by  1.889725989
 (inverse scale =  0.529177249)



                             Geometry "geometry" -> ""
                             -------------------------

 Output coordinates in angstroms (scale by  1.889725989 to convert to a.u.)

  No.       Tag          Charge          X              Y              Z
 ---- ---------------- ---------- -------------- -------------- --------------
    1 O                    8.0000     0.00123000     0.11934000     0.00000000
    2 H                    1.0000     0.75853000    -0.48526000     0.00000000
    3 H                    1.0000    -0.76837000    -0.46946000     0.00000000

      Atomic Mass 
      ----------- 

      O                 15.994910
      H                  1.007825


 Effective nuclear repulsion energy (a.u.)       9.0840418289

            Nuclear Dipole moment (a.u.) 
            ----------------------------
        X                 Y               Z
 ---------------- ---------------- ----------------
     0.0000000000     0.0000000000     0.0000000000


            XYZ format geometry
            -------------------
     3
 geometry
 O                     0.00123000     0.11934000     0.00000000
 H                     0.75853000    -0.48526000     0.00000000
 H                    -0.76837000    -0.46946000     0.00000000

 ==============================================================================
                                internuclear distances
 ------------------------------------------------------------------------------
       center one      |      center two      | atomic units |  angstroms
 ------------------------------------------------------------------------------
    2 H                |   1 O                |     1.83123  |     0.96904
    3 H                |   1 O                |     1.83115  |     0.96900
 ------------------------------------------------------------------------------
                         number of included internuclear distances:          2
 ==============================================================================



 ==============================================================================
                                 internuclear angles
 ------------------------------------------------------------------------------
        center 1       |       center 2       |       center 3       |  degrees
 ------------------------------------------------------------------------------
    2 H                |   1 O                |   3 H                |   103.98
 ------------------------------------------------------------------------------
                            number of included internuclear angles:          1
 ==============================================================================



  library name resolved from: environment
  library file name is: </codes/nwchem-6.8.1/data/libraries/>
  


 Summary of "ao basis" -> "" (cartesian)
 ------------------------------------------------------------------------------
       Tag                 Description            Shells   Functions and Types
 ---------------- ------------------------------  ------  ---------------------
 *                           6-31G*                   on all atoms 




                           NWChem Geometry Optimization
                           ----------------------------




                                     cpd08316


 maximum gradient threshold         (gmax) =   0.000450
 rms gradient threshold             (grms) =   0.000300
 maximum cartesian step threshold   (xmax) =   0.001800
 rms cartesian step threshold       (xrms) =   0.001200
 fixed trust radius                (trust) =   0.300000
 maximum step size to saddle      (sadstp) =   0.100000
 energy precision                  (eprec) =   5.0D-06
 maximum number of steps          (nptopt) =   50
 initial hessian option           (inhess) =    0
 line search option               (linopt) =    1
 hessian update option            (modupd) =    1
 saddle point option              (modsad) =    0
 initial eigen-mode to follow     (moddir) =    0
 initial variable to follow       (vardir) =    0
 follow first negative mode     (firstneg) =    T
 apply conjugacy                    (opcg) =    F
 source of zmatrix                         =           


          -------------------
          Energy Minimization
          -------------------


 Using diagonal initial Hessian 

          --------
          Step   0
          --------

                                 NWChem DFT Module
                                 -----------------


                                     cpd08316


                      Basis "ao basis" -> "ao basis" (cartesian)
                      -----
  O (Oxygen)
  ----------
            Exponent  Coefficients 
       -------------- ---------------------------------------------------------
  1 S  5.48467170E+03  0.001831
  1 S  8.25234950E+02  0.013950
  1 S  1.88046960E+02  0.068445
  1 S  5.29645000E+01  0.232714
  1 S  1.68975700E+01  0.470193
  1 S  5.79963530E+00  0.358521

  2 S  1.55396160E+01 -0.110778
  2 S  3.59993360E+00 -0.148026
  2 S  1.01376180E+00  1.130767

  3 P  1.55396160E+01  0.070874
  3 P  3.59993360E+00  0.339753
  3 P  1.01376180E+00  0.727159

  4 S  2.70005800E-01  1.000000

  5 P  2.70005800E-01  1.000000

  6 D  8.00000000E-01  1.000000

  H (Hydrogen)
  ------------
            Exponent  Coefficients 
       -------------- ---------------------------------------------------------
  1 S  1.87311370E+01  0.033495
  1 S  2.82539370E+00  0.234727
  1 S  6.40121700E-01  0.813757

  2 S  1.61277800E-01  1.000000



 Summary of "ao basis" -> "ao basis" (cartesian)
 ------------------------------------------------------------------------------
       Tag                 Description            Shells   Functions and Types
 ---------------- ------------------------------  ------  ---------------------
 O                           6-31G*                  6       15   3s2p1d
 H                           6-31G*                  2        2   2s



  Caching 1-el integrals 
   Time after variat. SCF:      0.3

     ---------------------------------------------
      Total Density - Mulliken Population Analysis
     ---------------------------------------------

    Atom       Charge   Shell Charges
 -----------   ------   -------------------------------------------------------
    1 O    8     9.06   2.00  0.94  3.12  0.86  2.08  0.06
    2 H    1     0.47   0.36  0.11
    3 H    1     0.47   0.36  0.11
   Time prior to 1st pass:      0.3


         Total DFT energy =      -76.408951308497
      One electron energy =     -122.930746356906
           Coulomb energy =       46.780760351372
    Exchange-Corr. energy =       -9.343007131908
 Nuclear repulsion energy =        9.084041828945

 Numeric. integr. density =       10.000001205796

     Total iterative time =      0.6s



                       DFT Final Molecular Orbital Analysis
                       ------------------------------------

 Vector    1  Occ=2.000000D+00  E=-1.913805D+01
              MO Center=  1.2D-03,  1.2D-01, -2.9D-18, r^2= 1.5D-02
   Bfn.  Coefficient  Atom+Function         Bfn.  Coefficient  Atom+Function  
  ----- ------------  ---------------      ----- ------------  ---------------
     1      0.992860  1 O  s                  2      0.026223  1 O  s          

 Vector    2  Occ=2.000000D+00  E=-9.974614D-01
              MO Center= -9.2D-04, -8.7D-02,  8.6D-16, r^2= 5.1D-01
   Bfn.  Coefficient  Atom+Function         Bfn.  Coefficient  Atom+Function  
  ----- ------------  ---------------      ----- ------------  ---------------
     2      0.469322  1 O  s                  6      0.439873  1 O  s          
     1     -0.209566  1 O  s                 16      0.138971  2 H  s          
    18      0.138985  3 H  s                  4     -0.127236  1 O  py         
     8     -0.060509  1 O  py         

 Vector    3  Occ=2.000000D+00  E=-5.175764D-01
              MO Center= -1.1D-03, -1.1D-01, -6.3D-17, r^2= 7.9D-01
   Bfn.  Coefficient  Atom+Function         Bfn.  Coefficient  Atom+Function  
  ----- ------------  ---------------      ----- ------------  ---------------
     3      0.517191  1 O  px                 7      0.269503  1 O  px         
    16      0.237573  2 H  s                 18     -0.237575  3 H  s          
    17      0.141654  2 H  s                 19     -0.141649  3 H  s          
    11     -0.071284  1 O  dxy        

 Vector    4  Occ=2.000000D+00  E=-3.715233D-01
              MO Center=  2.0D-03,  2.0D-01, -1.1D-15, r^2= 7.0D-01
   Bfn.  Coefficient  Atom+Function         Bfn.  Coefficient  Atom+Function  
  ----- ------------  ---------------      ----- ------------  ---------------
     4      0.552187  1 O  py                 6      0.409577  1 O  s          
     8      0.372845  1 O  py                 2      0.176731  1 O  s          
    16     -0.143479  2 H  s                 18     -0.143473  3 H  s          
    17     -0.114277  2 H  s                 19     -0.114267  3 H  s          
     1     -0.087855  1 O  s                 13     -0.052299  1 O  dyy        

 Vector    5  Occ=2.000000D+00  E=-2.910552D-01
              MO Center=  1.0D-03,  9.9D-02, -6.8D-16, r^2= 6.0D-01
   Bfn.  Coefficient  Atom+Function         Bfn.  Coefficient  Atom+Function  
  ----- ------------  ---------------      ----- ------------  ---------------
     5      0.644549  1 O  pz                 9      0.506083  1 O  pz         
    14     -0.061200  1 O  dyz        

 Vector    6  Occ=0.000000D+00  E= 6.256201D-02
              MO Center= -6.3D-03, -6.2D-01,  1.9D-15, r^2= 2.4D+00
   Bfn.  Coefficient  Atom+Function         Bfn.  Coefficient  Atom+Function  
  ----- ------------  ---------------      ----- ------------  ---------------
     6      1.258043  1 O  s                 17     -0.969131  2 H  s          
    19     -0.969005  3 H  s                  8     -0.476340  1 O  py         
     4     -0.280248  1 O  py                 2      0.119599  1 O  s          
     1     -0.100776  1 O  s                 16     -0.096773  2 H  s          
    18     -0.096746  3 H  s                 15     -0.057993  1 O  dzz        

 Vector    7  Occ=0.000000D+00  E= 1.480978D-01
              MO Center= -6.0D-03, -5.7D-01,  4.6D-18, r^2= 2.5D+00
   Bfn.  Coefficient  Atom+Function         Bfn.  Coefficient  Atom+Function  
  ----- ------------  ---------------      ----- ------------  ---------------
    17      1.276486  2 H  s                 19     -1.276681  3 H  s          
     7     -0.759382  1 O  px                 3     -0.413460  1 O  px         
    16      0.106974  2 H  s                 18     -0.106971  3 H  s          
    11      0.031990  1 O  dxy        

 Vector    8  Occ=0.000000D+00  E= 7.735510D-01
              MO Center= -1.3D-03, -1.5D-01,  3.2D-17, r^2= 1.6D+00
   Bfn.  Coefficient  Atom+Function         Bfn.  Coefficient  Atom+Function  
  ----- ------------  ---------------      ----- ------------  ---------------
    16      0.840676  2 H  s                 18     -0.840400  3 H  s          
    17     -0.654819  2 H  s                 19      0.654544  3 H  s          
     7     -0.429187  1 O  px                11     -0.340397  1 O  dxy        
     3     -0.174574  1 O  px         

 Vector    9  Occ=0.000000D+00  E= 8.597312D-01
              MO Center= -2.6D-03, -2.3D-01, -4.0D-15, r^2= 1.3D+00
   Bfn.  Coefficient  Atom+Function         Bfn.  Coefficient  Atom+Function  
  ----- ------------  ---------------      ----- ------------  ---------------
    16      0.723244  2 H  s                 18      0.723546  3 H  s          
     4      0.692251  1 O  py                17     -0.559048  2 H  s          
    19     -0.559163  3 H  s                  8     -0.361195  1 O  py         
     6      0.158424  1 O  s                 10      0.152073  1 O  dxx        
     2     -0.150595  1 O  s                 15     -0.125221  1 O  dzz        

 Vector   10  Occ=0.000000D+00  E= 8.908630D-01
              MO Center=  1.2D-03,  1.2D-01,  8.1D-14, r^2= 1.1D+00
   Bfn.  Coefficient  Atom+Function         Bfn.  Coefficient  Atom+Function  
  ----- ------------  ---------------      ----- ------------  ---------------
     9     -1.038610  1 O  pz                 5      0.959454  1 O  pz         
    14      0.028293  1 O  dyz        

 Vector   11  Occ=0.000000D+00  E= 8.947753D-01
              MO Center=  3.6D-03,  3.4D-01, -7.5D-14, r^2= 1.4D+00
   Bfn.  Coefficient  Atom+Function         Bfn.  Coefficient  Atom+Function  
  ----- ------------  ---------------      ----- ------------  ---------------
     6      1.395647  1 O  s                  8      0.838995  1 O  py         
     2     -0.827435  1 O  s                  4     -0.577089  1 O  py         
    16      0.451497  2 H  s                 18      0.451561  3 H  s          
    17     -0.359110  2 H  s                 19     -0.359069  3 H  s          
    15     -0.322802  1 O  dzz               13     -0.276162  1 O  dyy        

 Vector   12  Occ=0.000000D+00  E= 1.066021D+00
              MO Center=  1.0D-03,  1.0D-01,  1.5D-17, r^2= 1.5D+00
   Bfn.  Coefficient  Atom+Function         Bfn.  Coefficient  Atom+Function  
  ----- ------------  ---------------      ----- ------------  ---------------
     7      1.630276  1 O  px                 3     -0.988976  1 O  px         
    17     -0.924943  2 H  s                 19      0.925028  3 H  s          
    11      0.029627  1 O  dxy        

 Vector   13  Occ=0.000000D+00  E= 1.192182D+00
              MO Center= -3.8D-03, -3.7D-01, -3.1D-15, r^2= 1.4D+00
   Bfn.  Coefficient  Atom+Function         Bfn.  Coefficient  Atom+Function  
  ----- ------------  ---------------      ----- ------------  ---------------
     6      3.600756  1 O  s                  2     -1.461010  1 O  s          
     8     -1.100233  1 O  py                17     -0.775627  2 H  s          
    19     -0.775757  3 H  s                 10     -0.657478  1 O  dxx        
     4      0.402741  1 O  py                13     -0.392782  1 O  dyy        
    16     -0.347051  2 H  s                 18     -0.347039  3 H  s          

 Vector   14  Occ=0.000000D+00  E= 1.730144D+00
              MO Center=  1.8D-03,  1.7D-01,  2.0D-16, r^2= 6.2D-01
   Bfn.  Coefficient  Atom+Function         Bfn.  Coefficient  Atom+Function  
  ----- ------------  ---------------      ----- ------------  ---------------
    13      1.007806  1 O  dyy               10     -0.590572  1 O  dxx        
    15     -0.349897  1 O  dzz                6     -0.253085  1 O  s          
     8      0.143457  1 O  py                 2      0.090348  1 O  s          
    16      0.082294  2 H  s                 18      0.082292  3 H  s          
    17      0.042168  2 H  s                 19      0.042174  3 H  s          

 Vector   15  Occ=0.000000D+00  E= 1.746194D+00
              MO Center=  1.2D-03,  1.2D-01, -1.1D-16, r^2= 6.1D-01
   Bfn.  Coefficient  Atom+Function         Bfn.  Coefficient  Atom+Function  
  ----- ------------  ---------------      ----- ------------  ---------------
    12      1.731959  1 O  dxz        

 Vector   16  Occ=0.000000D+00  E= 1.780245D+00
              MO Center=  1.5D-03,  1.4D-01, -4.5D-17, r^2= 6.1D-01
   Bfn.  Coefficient  Atom+Function         Bfn.  Coefficient  Atom+Function  
  ----- ------------  ---------------      ----- ------------  ---------------
    14      1.730646  1 O  dyz                9      0.034876  1 O  pz         

 Vector   17  Occ=0.000000D+00  E= 2.280305D+00
              MO Center=  5.8D-05,  3.2D-03, -1.1D-16, r^2= 8.3D-01
   Bfn.  Coefficient  Atom+Function         Bfn.  Coefficient  Atom+Function  
  ----- ------------  ---------------      ----- ------------  ---------------
     6      1.533645  1 O  s                 15     -1.128748  1 O  dzz        
    16     -0.810881  2 H  s                 18     -0.810758  3 H  s          
    10      0.741819  1 O  dxx                8     -0.734523  1 O  py         
     2     -0.513477  1 O  s                 17     -0.140132  2 H  s          
    19     -0.140181  3 H  s                 13      0.063584  1 O  dyy        

 Vector   18  Occ=0.000000D+00  E= 2.577108D+00
              MO Center=  6.2D-04,  6.3D-02,  2.0D-16, r^2= 8.7D-01
   Bfn.  Coefficient  Atom+Function         Bfn.  Coefficient  Atom+Function  
  ----- ------------  ---------------      ----- ------------  ---------------
    11      2.201808  1 O  dxy               16      0.923768  2 H  s          
    18     -0.924014  3 H  s                  7     -0.846303  1 O  px         
    17     -0.048832  2 H  s                 19      0.048774  3 H  s          
     3      0.037790  1 O  px         

 Vector   19  Occ=0.000000D+00  E= 3.552338D+00
              MO Center=  1.2D-03,  1.2D-01,  6.4D-17, r^2= 1.0D+00
   Bfn.  Coefficient  Atom+Function         Bfn.  Coefficient  Atom+Function  
  ----- ------------  ---------------      ----- ------------  ---------------
     6      3.689885  1 O  s                 15     -1.578674  1 O  dzz        
    13     -1.550000  1 O  dyy               10     -1.526219  1 O  dxx        
    17     -0.554880  2 H  s                 19     -0.554927  3 H  s          
     1     -0.467972  1 O  s                  8     -0.332738  1 O  py         
     2      0.286634  1 O  s                  4      0.116248  1 O  py         


     ---------------------------------------------
      Total Density - Mulliken Population Analysis
     ---------------------------------------------

    Atom       Charge   Shell Charges
 -----------   ------   -------------------------------------------------------
    1 O    8     8.77   1.99  0.90  2.92  0.98  1.94  0.04
    2 H    1     0.61   0.48  0.14
    3 H    1     0.61   0.48  0.14

     -------------------------------------------
      Total Density - Lowdin Population Analysis
     -------------------------------------------

    Atom       Charge   Shell Charges
 -----------   ------   -------------------------------------------------------
    1 O    8     8.67   1.98  0.72  2.78  0.50  2.13  0.57
    2 H    1     0.66   0.44  0.22
    3 H    1     0.66   0.44  0.22


                         DFT ENERGY GRADIENTS

    atom               coordinates                        gradient
                 x          y          z           x          y          z
   1 O       0.002324   0.225520   0.000000   -0.000034  -0.000342  -0.000000
   2 H       1.433414  -0.917008   0.000000    0.000724   0.000152  -0.000000
   3 H      -1.452009  -0.887151   0.000000   -0.000690   0.000190   0.000000


@ Step       Energy      Delta E   Gmax     Grms     Xrms     Xmax   Walltime
@ ---- ---------------- -------- -------- -------- -------- -------- --------
@    0     -76.40895131  0.0D+00  0.00072  0.00036  0.00000  0.00000      1.7
                                                                    


                                 NWChem DFT Module
                                 -----------------


                                     cpd08316



  Caching 1-el integrals 
   Time after variat. SCF:      1.8

     ---------------------------------------------
      Total Density - Mulliken Population Analysis
     ---------------------------------------------

    Atom       Charge   Shell Charges
 -----------   ------   -------------------------------------------------------
    1 O    8     8.77   1.99  0.90  2.92  0.98  1.94  0.04
    2 H    1     0.61   0.48  0.14
    3 H    1     0.61   0.48  0.14
   Time prior to 1st pass:      1.8


         Total DFT energy =      -76.408951079609
      One electron energy =     -122.927076107724
           Coulomb energy =       46.777323421681
    Exchange-Corr. energy =       -9.342722783043
 Nuclear repulsion energy =        9.083524389477

 Numeric. integr. density =       10.000000978031

     Total iterative time =      0.6s



                       DFT Final Molecular Orbital Analysis
                       ------------------------------------

 Vector    1  Occ=2.000000D+00  E=-1.913845D+01
              MO Center=  1.3D-03,  1.2D-01,  3.3D-19, r^2= 1.5D-02
   Bfn.  Coefficient  Atom+Function         Bfn.  Coefficient  Atom+Function  
  ----- ------------  ---------------      ----- ------------  ---------------
     1      0.992861  1 O  s                  2      0.026225  1 O  s          

 Vector    2  Occ=2.000000D+00  E=-9.979679D-01
              MO Center= -8.7D-04, -8.6D-02, -2.3D-17, r^2= 5.1D-01
   Bfn.  Coefficient  Atom+Function         Bfn.  Coefficient  Atom+Function  
  ----- ------------  ---------------      ----- ------------  ---------------
     2      0.469136  1 O  s                  6      0.439546  1 O  s          
     1     -0.209461  1 O  s                 16      0.139124  2 H  s          
    18      0.139120  3 H  s                  4     -0.127973  1 O  py         
     8     -0.060854  1 O  py         

 Vector    3  Occ=2.000000D+00  E=-5.163406D-01
              MO Center= -1.1D-03, -1.1D-01,  3.7D-18, r^2= 7.9D-01
   Bfn.  Coefficient  Atom+Function         Bfn.  Coefficient  Atom+Function  
  ----- ------------  ---------------      ----- ------------  ---------------
     3      0.517521  1 O  px                 7      0.270150  1 O  px         
    16      0.237217  2 H  s                 18     -0.237217  3 H  s          
    17      0.142463  2 H  s                 19     -0.142464  3 H  s          
    11     -0.071635  1 O  dxy        

 Vector    4  Occ=2.000000D+00  E=-3.729063D-01
              MO Center=  2.1D-03,  2.0D-01,  3.6D-17, r^2= 7.0D-01
   Bfn.  Coefficient  Atom+Function         Bfn.  Coefficient  Atom+Function  
  ----- ------------  ---------------      ----- ------------  ---------------
     4      0.551255  1 O  py                 6      0.411225  1 O  s          
     8      0.371304  1 O  py                 2      0.177772  1 O  s          
    16     -0.144095  2 H  s                 18     -0.144096  3 H  s          
    17     -0.114529  2 H  s                 19     -0.114532  3 H  s          
     1     -0.088334  1 O  s                 13     -0.052502  1 O  dyy        

 Vector    5  Occ=2.000000D+00  E=-2.912734D-01
              MO Center=  1.1D-03,  1.0D-01,  1.1D-16, r^2= 6.0D-01
   Bfn.  Coefficient  Atom+Function         Bfn.  Coefficient  Atom+Function  
  ----- ------------  ---------------      ----- ------------  ---------------
     5      0.644633  1 O  pz                 9      0.505985  1 O  pz         
    14     -0.061482  1 O  dyz        

 Vector    6  Occ=0.000000D+00  E= 6.240103D-02
              MO Center= -6.5D-03, -6.2D-01, -6.4D-17, r^2= 2.4D+00
   Bfn.  Coefficient  Atom+Function         Bfn.  Coefficient  Atom+Function  
  ----- ------------  ---------------      ----- ------------  ---------------
     6      1.255637  1 O  s                 17     -0.968127  2 H  s          
    19     -0.968159  3 H  s                  8     -0.478732  1 O  py         
     4     -0.281518  1 O  py                 2      0.119073  1 O  s          
     1     -0.100460  1 O  s                 16     -0.096054  2 H  s          
    18     -0.096061  3 H  s                 15     -0.058000  1 O  dzz        

 Vector    7  Occ=0.000000D+00  E= 1.478369D-01
              MO Center= -5.8D-03, -5.7D-01,  3.9D-18, r^2= 2.5D+00
   Bfn.  Coefficient  Atom+Function         Bfn.  Coefficient  Atom+Function  
  ----- ------------  ---------------      ----- ------------  ---------------
    17      1.277179  2 H  s                 19     -1.277129  3 H  s          
     7     -0.757647  1 O  px                 3     -0.413699  1 O  px         
    16      0.108056  2 H  s                 18     -0.108057  3 H  s          
    11      0.031769  1 O  dxy        

 Vector    8  Occ=0.000000D+00  E= 7.709276D-01
              MO Center= -1.6D-03, -1.5D-01,  7.1D-17, r^2= 1.6D+00
   Bfn.  Coefficient  Atom+Function         Bfn.  Coefficient  Atom+Function  
  ----- ------------  ---------------      ----- ------------  ---------------
    16      0.839754  2 H  s                 18     -0.839820  3 H  s          
    17     -0.658528  2 H  s                 19      0.658596  3 H  s          
     7     -0.428282  1 O  px                11     -0.338481  1 O  dxy        
     3     -0.170450  1 O  px         

 Vector    9  Occ=0.000000D+00  E= 8.613308D-01
              MO Center= -2.0D-03, -2.0D-01,  7.2D-16, r^2= 1.3D+00
   Bfn.  Coefficient  Atom+Function         Bfn.  Coefficient  Atom+Function  
  ----- ------------  ---------------      ----- ------------  ---------------
     4      0.718573  1 O  py                16      0.703193  2 H  s          
    18      0.703120  3 H  s                 17     -0.548213  2 H  s          
    19     -0.548186  3 H  s                  8     -0.399407  1 O  py         
    10      0.153474  1 O  dxx                2     -0.125836  1 O  s          
     6      0.122878  1 O  s                 15     -0.115267  1 O  dzz        

 Vector   10  Occ=0.000000D+00  E= 8.906957D-01
              MO Center=  1.2D-03,  1.2D-01,  1.9D-14, r^2= 1.1D+00
   Bfn.  Coefficient  Atom+Function         Bfn.  Coefficient  Atom+Function  
  ----- ------------  ---------------      ----- ------------  ---------------
     9     -1.038649  1 O  pz                 5      0.959398  1 O  pz         
    14      0.028548  1 O  dyz        

 Vector   11  Occ=0.000000D+00  E= 8.953552D-01
              MO Center=  3.2D-03,  3.1D-01, -2.0D-14, r^2= 1.5D+00
   Bfn.  Coefficient  Atom+Function         Bfn.  Coefficient  Atom+Function  
  ----- ------------  ---------------      ----- ------------  ---------------
     6      1.426743  1 O  s                  2     -0.844633  1 O  s          
     8      0.816994  1 O  py                 4     -0.544296  1 O  py         
    16      0.478158  2 H  s                 18      0.478140  3 H  s          
    17     -0.384519  2 H  s                 19     -0.384529  3 H  s          
    15     -0.331410  1 O  dzz               13     -0.277774  1 O  dyy        

 Vector   12  Occ=0.000000D+00  E= 1.065337D+00
              MO Center=  1.1D-03,  1.0D-01, -7.5D-18, r^2= 1.5D+00
   Bfn.  Coefficient  Atom+Function         Bfn.  Coefficient  Atom+Function  
  ----- ------------  ---------------      ----- ------------  ---------------
     7      1.625312  1 O  px                 3     -0.989082  1 O  px         
    17     -0.926100  2 H  s                 19      0.926077  3 H  s          
    11      0.026973  1 O  dxy        

 Vector   13  Occ=0.000000D+00  E= 1.194663D+00
              MO Center= -3.7D-03, -3.6D-01, -3.8D-16, r^2= 1.4D+00
   Bfn.  Coefficient  Atom+Function         Bfn.  Coefficient  Atom+Function  
  ----- ------------  ---------------      ----- ------------  ---------------
     6      3.588530  1 O  s                  2     -1.452760  1 O  s          
     8     -1.111343  1 O  py                17     -0.769066  2 H  s          
    19     -0.769034  3 H  s                 10     -0.657325  1 O  dxx        
     4      0.403000  1 O  py                13     -0.393907  1 O  dyy        
    16     -0.357732  2 H  s                 18     -0.357735  3 H  s          

 Vector   14  Occ=0.000000D+00  E= 1.728177D+00
              MO Center=  1.8D-03,  1.7D-01,  8.1D-18, r^2= 6.2D-01
   Bfn.  Coefficient  Atom+Function         Bfn.  Coefficient  Atom+Function  
  ----- ------------  ---------------      ----- ------------  ---------------
    13      1.005605  1 O  dyy               10     -0.601387  1 O  dxx        
    15     -0.337421  1 O  dzz                6     -0.251000  1 O  s          
     8      0.143398  1 O  py                 2      0.089730  1 O  s          
    16      0.080917  2 H  s                 18      0.080918  3 H  s          
    17      0.042202  2 H  s                 19      0.042200  3 H  s          

 Vector   15  Occ=0.000000D+00  E= 1.746756D+00
              MO Center=  1.3D-03,  1.2D-01, -3.0D-16, r^2= 6.1D-01
   Bfn.  Coefficient  Atom+Function         Bfn.  Coefficient  Atom+Function  
  ----- ------------  ---------------      ----- ------------  ---------------
    12      1.731958  1 O  dxz        

 Vector   16  Occ=0.000000D+00  E= 1.779466D+00
              MO Center=  1.5D-03,  1.5D-01,  4.6D-18, r^2= 6.1D-01
   Bfn.  Coefficient  Atom+Function         Bfn.  Coefficient  Atom+Function  
  ----- ------------  ---------------      ----- ------------  ---------------
    14      1.730631  1 O  dyz                9      0.035109  1 O  pz         

 Vector   17  Occ=0.000000D+00  E= 2.279897D+00
              MO Center=  4.6D-05,  3.9D-03,  3.9D-17, r^2= 8.3D-01
   Bfn.  Coefficient  Atom+Function         Bfn.  Coefficient  Atom+Function  
  ----- ------------  ---------------      ----- ------------  ---------------
     6      1.540839  1 O  s                 15     -1.133272  1 O  dzz        
    16     -0.812326  2 H  s                 18     -0.812358  3 H  s          
     8     -0.742516  1 O  py                10      0.729712  1 O  dxx        
     2     -0.516246  1 O  s                 17     -0.141977  2 H  s          
    19     -0.141964  3 H  s                 13      0.078490  1 O  dyy        

 Vector   18  Occ=0.000000D+00  E= 2.575582D+00
              MO Center=  7.0D-04,  6.6D-02,  1.1D-17, r^2= 8.6D-01
   Bfn.  Coefficient  Atom+Function         Bfn.  Coefficient  Atom+Function  
  ----- ------------  ---------------      ----- ------------  ---------------
    11      2.202208  1 O  dxy               16      0.921377  2 H  s          
    18     -0.921313  3 H  s                  7     -0.836506  1 O  px         
    17     -0.052265  2 H  s                 19      0.052280  3 H  s          
     3      0.036955  1 O  px         

 Vector   19  Occ=0.000000D+00  E= 3.551001D+00
              MO Center=  1.3D-03,  1.2D-01, -4.8D-18, r^2= 1.0D+00
   Bfn.  Coefficient  Atom+Function         Bfn.  Coefficient  Atom+Function  
  ----- ------------  ---------------      ----- ------------  ---------------
     6      3.687069  1 O  s                 15     -1.578737  1 O  dzz        
    13     -1.548844  1 O  dyy               10     -1.525448  1 O  dxx        
    17     -0.553428  2 H  s                 19     -0.553416  3 H  s          
     1     -0.467838  1 O  s                  8     -0.335195  1 O  py         
     2      0.287285  1 O  s                  4      0.116814  1 O  py         


     ---------------------------------------------
      Total Density - Mulliken Population Analysis
     ---------------------------------------------

    Atom       Charge   Shell Charges
 -----------   ------   -------------------------------------------------------
    1 O    8     8.77   1.99  0.90  2.92  0.98  1.94  0.04
    2 H    1     0.61   0.48  0.14
    3 H    1     0.61   0.48  0.14

     -------------------------------------------
      Total Density - Lowdin Population Analysis
     -------------------------------------------

    Atom       Charge   Shell Charges
 -----------   ------   -------------------------------------------------------
    1 O    8     8.67   1.98  0.72  2.78  0.50  2.13  0.57
    2 H    1     0.66   0.44  0.22
    3 H    1     0.66   0.44  0.22
 Line search: 
     step= 1.00 grad=-1.2D-05 hess= 1.2D-05 energy=    -76.408951 mode=accept  
 new step= 1.00                   predicted energy=    -76.408951

          --------
          Step   1
          --------

                                 NWChem DFT Module
                                 -----------------


                                     cpd08316




  The DFT is already converged 

         Total DFT energy =    -76.408951079609



                         DFT ENERGY GRADIENTS

    atom               coordinates                        gradient
                 x          y          z           x          y          z
   1 O       0.002417   0.231372   0.000000    0.000021   0.001260   0.000000
   2 H       1.427011  -0.919856   0.000000   -0.000123  -0.000626  -0.000000
   3 H      -1.445699  -0.890155  -0.000000    0.000102  -0.000634  -0.000000


  Step       Energy      Delta E   Gmax     Grms     Xrms     Xmax   Walltime
  ---- ---------------- -------- -------- -------- -------- -------- --------
@    1     -76.40895108  2.3D-07  0.00126  0.00052  0.00383  0.00640      3.1
                                                                    


                                 NWChem DFT Module
                                 -----------------


                                     cpd08316



  Caching 1-el integrals 
   Time after variat. SCF:      3.2

     ---------------------------------------------
      Total Density - Mulliken Population Analysis
     ---------------------------------------------

    Atom       Charge   Shell Charges
 -----------   ------   -------------------------------------------------------
    1 O    8     8.77   1.99  0.90  2.92  0.98  1.94  0.04
    2 H    1     0.61   0.48  0.14
    3 H    1     0.61   0.48  0.14
   Time prior to 1st pass:      3.2


         Total DFT energy =      -76.408954503563
      One electron energy =     -122.938037038337
           Coulomb energy =       46.783720945962
    Exchange-Corr. energy =       -9.343403805297
 Nuclear repulsion energy =        9.088765394109

 Numeric. integr. density =       10.000001095834

     Total iterative time =      0.5s



                       DFT Final Molecular Orbital Analysis
                       ------------------------------------

 Vector    1  Occ=2.000000D+00  E=-1.913815D+01
              MO Center=  1.3D-03,  1.2D-01, -3.1D-19, r^2= 1.5D-02
   Bfn.  Coefficient  Atom+Function         Bfn.  Coefficient  Atom+Function  
  ----- ------------  ---------------      ----- ------------  ---------------
     1      0.992860  1 O  s                  2      0.026224  1 O  s          

 Vector    2  Occ=2.000000D+00  E=-9.979306D-01
              MO Center= -8.8D-04, -8.7D-02, -2.6D-17, r^2= 5.1D-01
   Bfn.  Coefficient  Atom+Function         Bfn.  Coefficient  Atom+Function  
  ----- ------------  ---------------      ----- ------------  ---------------
     2      0.469209  1 O  s                  6      0.439472  1 O  s          
     1     -0.209498  1 O  s                 16      0.139169  2 H  s          
    18      0.139164  3 H  s                  4     -0.127704  1 O  py         
     8     -0.060642  1 O  py         

 Vector    3  Occ=2.000000D+00  E=-5.171843D-01
              MO Center= -1.1D-03, -1.1D-01, -6.4D-18, r^2= 7.9D-01
   Bfn.  Coefficient  Atom+Function         Bfn.  Coefficient  Atom+Function  
  ----- ------------  ---------------      ----- ------------  ---------------
     3      0.517426  1 O  px                 7      0.269728  1 O  px         
    16      0.237448  2 H  s                 18     -0.237448  3 H  s          
    17      0.141927  2 H  s                 19     -0.141928  3 H  s          
    11     -0.071471  1 O  dxy        

 Vector    4  Occ=2.000000D+00  E=-3.722189D-01
              MO Center=  2.1D-03,  2.0D-01,  2.4D-16, r^2= 7.0D-01
   Bfn.  Coefficient  Atom+Function         Bfn.  Coefficient  Atom+Function  
  ----- ------------  ---------------      ----- ------------  ---------------
     4      0.551799  1 O  py                 6      0.410439  1 O  s          
     8      0.372138  1 O  py                 2      0.177260  1 O  s          
    16     -0.143720  2 H  s                 18     -0.143722  3 H  s          
    17     -0.114246  2 H  s                 19     -0.114249  3 H  s          
     1     -0.088099  1 O  s                 13     -0.052421  1 O  dyy        

 Vector    5  Occ=2.000000D+00  E=-2.911968D-01
              MO Center=  1.0D-03,  1.0D-01, -1.2D-16, r^2= 6.0D-01
   Bfn.  Coefficient  Atom+Function         Bfn.  Coefficient  Atom+Function  
  ----- ------------  ---------------      ----- ------------  ---------------
     5      0.644577  1 O  pz                 9      0.506049  1 O  pz         
    14     -0.061385  1 O  dyz        

 Vector    6  Occ=0.000000D+00  E= 6.263397D-02
              MO Center= -6.4D-03, -6.2D-01, -2.4D-16, r^2= 2.4D+00
   Bfn.  Coefficient  Atom+Function         Bfn.  Coefficient  Atom+Function  
  ----- ------------  ---------------      ----- ------------  ---------------
     6      1.258053  1 O  s                 17     -0.969149  2 H  s          
    19     -0.969187  3 H  s                  8     -0.477418  1 O  py         
     4     -0.280602  1 O  py                 2      0.119291  1 O  s          
     1     -0.100649  1 O  s                 16     -0.096240  2 H  s          
    18     -0.096248  3 H  s                 15     -0.058052  1 O  dzz        

 Vector    7  Occ=0.000000D+00  E= 1.481642D-01
              MO Center= -5.8D-03, -5.7D-01, -2.0D-18, r^2= 2.5D+00
   Bfn.  Coefficient  Atom+Function         Bfn.  Coefficient  Atom+Function  
  ----- ------------  ---------------      ----- ------------  ---------------
    17      1.278052  2 H  s                 19     -1.277993  3 H  s          
     7     -0.758834  1 O  px                 3     -0.413396  1 O  px         
    16      0.107309  2 H  s                 18     -0.107310  3 H  s          
    11      0.031937  1 O  dxy        

 Vector    8  Occ=0.000000D+00  E= 7.725240D-01
              MO Center= -1.6D-03, -1.5D-01,  1.4D-16, r^2= 1.6D+00
   Bfn.  Coefficient  Atom+Function         Bfn.  Coefficient  Atom+Function  
  ----- ------------  ---------------      ----- ------------  ---------------
    16      0.840185  2 H  s                 18     -0.840266  3 H  s          
    17     -0.654926  2 H  s                 19      0.655008  3 H  s          
     7     -0.430924  1 O  px                11     -0.339463  1 O  dxy        
     3     -0.172134  1 O  px         

 Vector    9  Occ=0.000000D+00  E= 8.610397D-01
              MO Center= -2.1D-03, -2.1D-01,  2.1D-15, r^2= 1.3D+00
   Bfn.  Coefficient  Atom+Function         Bfn.  Coefficient  Atom+Function  
  ----- ------------  ---------------      ----- ------------  ---------------
     4      0.708609  1 O  py                16      0.711178  2 H  s          
    18      0.711090  3 H  s                 17     -0.551475  2 H  s          
    19     -0.551442  3 H  s                  8     -0.384267  1 O  py         
    10      0.153748  1 O  dxx                2     -0.134494  1 O  s          
     6      0.133381  1 O  s                 15     -0.118896  1 O  dzz        

 Vector   10  Occ=0.000000D+00  E= 8.907801D-01
              MO Center=  1.2D-03,  1.2D-01, -4.2D-14, r^2= 1.1D+00
   Bfn.  Coefficient  Atom+Function         Bfn.  Coefficient  Atom+Function  
  ----- ------------  ---------------      ----- ------------  ---------------
     9     -1.038622  1 O  pz                 5      0.959436  1 O  pz         
    14      0.028411  1 O  dyz        

 Vector   11  Occ=0.000000D+00  E= 8.951026D-01
              MO Center=  3.3D-03,  3.2D-01,  4.1D-14, r^2= 1.4D+00
   Bfn.  Coefficient  Atom+Function         Bfn.  Coefficient  Atom+Function  
  ----- ------------  ---------------      ----- ------------  ---------------
     6      1.409605  1 O  s                  2     -0.836076  1 O  s          
     8      0.827188  1 O  py                 4     -0.557434  1 O  py         
    16      0.468868  2 H  s                 18      0.468847  3 H  s          
    17     -0.374024  2 H  s                 19     -0.374036  3 H  s          
    15     -0.327593  1 O  dzz               13     -0.276844  1 O  dyy        

 Vector   12  Occ=0.000000D+00  E= 1.065816D+00
              MO Center=  1.1D-03,  1.0D-01,  5.2D-17, r^2= 1.5D+00
   Bfn.  Coefficient  Atom+Function         Bfn.  Coefficient  Atom+Function  
  ----- ------------  ---------------      ----- ------------  ---------------
     7      1.628071  1 O  px                 3     -0.989220  1 O  px         
    17     -0.926897  2 H  s                 19      0.926870  3 H  s          
    11      0.027593  1 O  dxy        

 Vector   13  Occ=0.000000D+00  E= 1.193447D+00
              MO Center= -3.8D-03, -3.7D-01,  7.8D-17, r^2= 1.4D+00
   Bfn.  Coefficient  Atom+Function         Bfn.  Coefficient  Atom+Function  
  ----- ------------  ---------------      ----- ------------  ---------------
     6      3.597327  1 O  s                  2     -1.457650  1 O  s          
     8     -1.105508  1 O  py                17     -0.773439  2 H  s          
    19     -0.773400  3 H  s                 10     -0.657513  1 O  dxx        
     4      0.402425  1 O  py                13     -0.393307  1 O  dyy        
    16     -0.352019  2 H  s                 18     -0.352022  3 H  s          

 Vector   14  Occ=0.000000D+00  E= 1.729081D+00
              MO Center=  1.8D-03,  1.7D-01,  1.5D-16, r^2= 6.2D-01
   Bfn.  Coefficient  Atom+Function         Bfn.  Coefficient  Atom+Function  
  ----- ------------  ---------------      ----- ------------  ---------------
    13      1.006796  1 O  dyy               10     -0.595667  1 O  dxx        
    15     -0.343999  1 O  dzz                6     -0.252503  1 O  s          
     8      0.143579  1 O  py                 2      0.090135  1 O  s          
    16      0.081753  2 H  s                 18      0.081754  3 H  s          
    17      0.042283  2 H  s                 19      0.042282  3 H  s          

 Vector   15  Occ=0.000000D+00  E= 1.746346D+00
              MO Center=  1.3D-03,  1.2D-01, -4.8D-16, r^2= 6.1D-01
   Bfn.  Coefficient  Atom+Function         Bfn.  Coefficient  Atom+Function  
  ----- ------------  ---------------      ----- ------------  ---------------
    12      1.731958  1 O  dxz        

 Vector   16  Occ=0.000000D+00  E= 1.779791D+00
              MO Center=  1.5D-03,  1.5D-01,  1.3D-17, r^2= 6.1D-01
   Bfn.  Coefficient  Atom+Function         Bfn.  Coefficient  Atom+Function  
  ----- ------------  ---------------      ----- ------------  ---------------
    14      1.730637  1 O  dyz                9      0.035000  1 O  pz         

 Vector   17  Occ=0.000000D+00  E= 2.280719D+00
              MO Center=  3.9D-05,  3.3D-03,  8.1D-17, r^2= 8.3D-01
   Bfn.  Coefficient  Atom+Function         Bfn.  Coefficient  Atom+Function  
  ----- ------------  ---------------      ----- ------------  ---------------
     6      1.539226  1 O  s                 15     -1.131175  1 O  dzz        
    16     -0.812529  2 H  s                 18     -0.812567  3 H  s          
     8     -0.739161  1 O  py                10      0.736263  1 O  dxx        
     2     -0.514840  1 O  s                 17     -0.141504  2 H  s          
    19     -0.141489  3 H  s                 13      0.070678  1 O  dyy        

 Vector   18  Occ=0.000000D+00  E= 2.577320D+00
              MO Center=  6.8D-04,  6.4D-02,  1.1D-18, r^2= 8.6D-01
   Bfn.  Coefficient  Atom+Function         Bfn.  Coefficient  Atom+Function  
  ----- ------------  ---------------      ----- ------------  ---------------
    11      2.203100  1 O  dxy               16      0.923750  2 H  s          
    18     -0.923675  3 H  s                  7     -0.842626  1 O  px         
    17     -0.050074  2 H  s                 19      0.050091  3 H  s          
     3      0.036805  1 O  px         

 Vector   19  Occ=0.000000D+00  E= 3.551970D+00
              MO Center=  1.3D-03,  1.2D-01, -1.6D-17, r^2= 1.0D+00
   Bfn.  Coefficient  Atom+Function         Bfn.  Coefficient  Atom+Function  
  ----- ------------  ---------------      ----- ------------  ---------------
     6      3.689806  1 O  s                 15     -1.578755  1 O  dzz        
    13     -1.549692  1 O  dyy               10     -1.526199  1 O  dxx        
    17     -0.554646  2 H  s                 19     -0.554631  3 H  s          
     1     -0.467960  1 O  s                  8     -0.333951  1 O  py         
     2      0.286636  1 O  s                  4      0.116624  1 O  py         


     ---------------------------------------------
      Total Density - Mulliken Population Analysis
     ---------------------------------------------

    Atom       Charge   Shell Charges
 -----------   ------   -------------------------------------------------------
    1 O    8     8.77   1.99  0.90  2.92  0.98  1.94  0.04
    2 H    1     0.61   0.48  0.14
    3 H    1     0.61   0.48  0.14

     -------------------------------------------
      Total Density - Lowdin Population Analysis
     -------------------------------------------

    Atom       Charge   Shell Charges
 -----------   ------   -------------------------------------------------------
    1 O    8     8.67   1.98  0.72  2.78  0.50  2.13  0.57
    2 H    1     0.66   0.44  0.22
    3 H    1     0.66   0.44  0.22
 Line search: 
     step= 1.00 grad=-7.1D-06 hess= 3.7D-06 energy=    -76.408955 mode=accept  
 new step= 1.00                   predicted energy=    -76.408955

          --------
          Step   2
          --------

                                 NWChem DFT Module
                                 -----------------


                                     cpd08316




  The DFT is already converged 

         Total DFT energy =    -76.408954503563



                         DFT ENERGY GRADIENTS

    atom               coordinates                        gradient
                 x          y          z           x          y          z
   1 O       0.002382   0.227907   0.000000    0.000008  -0.000151   0.000000
   2 H       1.429566  -0.918149   0.000000   -0.000106   0.000080  -0.000000
   3 H      -1.448219  -0.888397  -0.000000    0.000098   0.000071   0.000000


  Step       Energy      Delta E   Gmax     Grms     Xrms     Xmax   Walltime
  ---- ---------------- -------- -------- -------- -------- -------- --------
@    2     -76.40895450 -3.4D-06  0.00015  0.00008  0.00185  0.00347      4.5
                                     ok       ok                    


                                 NWChem DFT Module
                                 -----------------


                                     cpd08316



  Caching 1-el integrals 
   Time after variat. SCF:      4.5

     ---------------------------------------------
      Total Density - Mulliken Population Analysis
     ---------------------------------------------

    Atom       Charge   Shell Charges
 -----------   ------   -------------------------------------------------------
    1 O    8     8.77   1.99  0.90  2.92  0.98  1.94  0.04
    2 H    1     0.61   0.48  0.14
    3 H    1     0.61   0.48  0.14
   Time prior to 1st pass:      4.5


         Total DFT energy =      -76.408954524846
      One electron energy =     -122.934596307096
           Coulomb energy =       46.781583413877
    Exchange-Corr. energy =       -9.343152694543
 Nuclear repulsion energy =        9.087211062916

 Numeric. integr. density =       10.000001096840

     Total iterative time =      0.4s



                       DFT Final Molecular Orbital Analysis
                       ------------------------------------

 Vector    1  Occ=2.000000D+00  E=-1.913820D+01
              MO Center=  1.3D-03,  1.2D-01, -2.9D-20, r^2= 1.5D-02
   Bfn.  Coefficient  Atom+Function         Bfn.  Coefficient  Atom+Function  
  ----- ------------  ---------------      ----- ------------  ---------------
     1      0.992860  1 O  s                  2      0.026224  1 O  s          

 Vector    2  Occ=2.000000D+00  E=-9.978637D-01
              MO Center= -8.9D-04, -8.7D-02, -8.6D-17, r^2= 5.1D-01
   Bfn.  Coefficient  Atom+Function         Bfn.  Coefficient  Atom+Function  
  ----- ------------  ---------------      ----- ------------  ---------------
     2      0.469221  1 O  s                  6      0.439550  1 O  s          
     1     -0.209505  1 O  s                 16      0.139127  2 H  s          
    18      0.139129  3 H  s                  4     -0.127665  1 O  py         
     8     -0.060650  1 O  py         

 Vector    3  Occ=2.000000D+00  E=-5.171264D-01
              MO Center= -1.1D-03, -1.1D-01, -6.1D-20, r^2= 7.9D-01
   Bfn.  Coefficient  Atom+Function         Bfn.  Coefficient  Atom+Function  
  ----- ------------  ---------------      ----- ------------  ---------------
     3      0.517407  1 O  px                 7      0.269754  1 O  px         
    16      0.237433  2 H  s                 18     -0.237433  3 H  s          
    17      0.141958  2 H  s                 19     -0.141958  3 H  s          
    11     -0.071464  1 O  dxy        

 Vector    4  Occ=2.000000D+00  E=-3.722153D-01
              MO Center=  2.1D-03,  2.0D-01,  6.9D-17, r^2= 7.0D-01
   Bfn.  Coefficient  Atom+Function         Bfn.  Coefficient  Atom+Function  
  ----- ------------  ---------------      ----- ------------  ---------------
     4      0.551789  1 O  py                 6      0.410404  1 O  s          
     8      0.372128  1 O  py                 2      0.177247  1 O  s          
    16     -0.143736  2 H  s                 18     -0.143735  3 H  s          
    17     -0.114289  2 H  s                 19     -0.114287  3 H  s          
     1     -0.088092  1 O  s                 13     -0.052412  1 O  dyy        

 Vector    5  Occ=2.000000D+00  E=-2.911923D-01
              MO Center=  1.0D-03,  1.0D-01, -1.7D-16, r^2= 6.0D-01
   Bfn.  Coefficient  Atom+Function         Bfn.  Coefficient  Atom+Function  
  ----- ------------  ---------------      ----- ------------  ---------------
     5      0.644584  1 O  pz                 9      0.506041  1 O  pz         
    14     -0.061367  1 O  dyz        

 Vector    6  Occ=0.000000D+00  E= 6.258764D-02
              MO Center= -6.4D-03, -6.2D-01, -1.5D-17, r^2= 2.4D+00
   Bfn.  Coefficient  Atom+Function         Bfn.  Coefficient  Atom+Function  
  ----- ------------  ---------------      ----- ------------  ---------------
     6      1.257693  1 O  s                 17     -0.969012  2 H  s          
    19     -0.968988  3 H  s                  8     -0.477433  1 O  py         
     4     -0.280679  1 O  py                 2      0.119311  1 O  s          
     1     -0.100642  1 O  s                 16     -0.096304  2 H  s          
    18     -0.096299  3 H  s                 15     -0.058034  1 O  dzz        

 Vector    7  Occ=0.000000D+00  E= 1.481032D-01
              MO Center= -5.9D-03, -5.7D-01,  7.6D-19, r^2= 2.5D+00
   Bfn.  Coefficient  Atom+Function         Bfn.  Coefficient  Atom+Function  
  ----- ------------  ---------------      ----- ------------  ---------------
    17      1.277634  2 H  s                 19     -1.277670  3 H  s          
     7     -0.758740  1 O  px                 3     -0.413453  1 O  px         
    16      0.107368  2 H  s                 18     -0.107368  3 H  s          
    11      0.031919  1 O  dxy        

 Vector    8  Occ=0.000000D+00  E= 7.724521D-01
              MO Center= -1.5D-03, -1.5D-01,  8.3D-17, r^2= 1.6D+00
   Bfn.  Coefficient  Atom+Function         Bfn.  Coefficient  Atom+Function  
  ----- ------------  ---------------      ----- ------------  ---------------
    16      0.840234  2 H  s                 18     -0.840186  3 H  s          
    17     -0.655481  2 H  s                 19      0.655433  3 H  s          
     7     -0.430246  1 O  px                11     -0.339471  1 O  dxy        
     3     -0.172279  1 O  px         

 Vector    9  Occ=0.000000D+00  E= 8.608739D-01
              MO Center= -2.2D-03, -2.1D-01, -3.0D-16, r^2= 1.3D+00
   Bfn.  Coefficient  Atom+Function         Bfn.  Coefficient  Atom+Function  
  ----- ------------  ---------------      ----- ------------  ---------------
    16      0.711949  2 H  s                 18      0.712001  3 H  s          
     4      0.707502  1 O  py                17     -0.552249  2 H  s          
    19     -0.552269  3 H  s                  8     -0.382832  1 O  py         
    10      0.153435  1 O  dxx                2     -0.135855  1 O  s          
     6      0.135955  1 O  s                 15     -0.119401  1 O  dzz        

 Vector   10  Occ=0.000000D+00  E= 8.907749D-01
              MO Center=  1.2D-03,  1.2D-01,  7.6D-15, r^2= 1.1D+00
   Bfn.  Coefficient  Atom+Function         Bfn.  Coefficient  Atom+Function  
  ----- ------------  ---------------      ----- ------------  ---------------
     9     -1.038626  1 O  pz                 5      0.959431  1 O  pz         
    14      0.028413  1 O  dyz        

 Vector   11  Occ=0.000000D+00  E= 8.950799D-01
              MO Center=  3.4D-03,  3.2D-01, -7.1D-15, r^2= 1.4D+00
   Bfn.  Coefficient  Atom+Function         Bfn.  Coefficient  Atom+Function  
  ----- ------------  ---------------      ----- ------------  ---------------
     6      1.409918  1 O  s                  2     -0.835978  1 O  s          
     8      0.827658  1 O  py                 4     -0.558707  1 O  py         
    16      0.467470  2 H  s                 18      0.467482  3 H  s          
    17     -0.373191  2 H  s                 19     -0.373184  3 H  s          
    15     -0.327397  1 O  dzz               13     -0.276890  1 O  dyy        

 Vector   12  Occ=0.000000D+00  E= 1.065772D+00
              MO Center=  1.1D-03,  1.0D-01,  3.5D-17, r^2= 1.5D+00
   Bfn.  Coefficient  Atom+Function         Bfn.  Coefficient  Atom+Function  
  ----- ------------  ---------------      ----- ------------  ---------------
     7      1.628022  1 O  px                 3     -0.989157  1 O  px         
    17     -0.926449  2 H  s                 19      0.926465  3 H  s          
    11      0.027829  1 O  dxy        

 Vector   13  Occ=0.000000D+00  E= 1.193418D+00
              MO Center= -3.8D-03, -3.7D-01,  4.2D-17, r^2= 1.4D+00
   Bfn.  Coefficient  Atom+Function         Bfn.  Coefficient  Atom+Function  
  ----- ------------  ---------------      ----- ------------  ---------------
     6      3.596586  1 O  s                  2     -1.457473  1 O  s          
     8     -1.105520  1 O  py                17     -0.773130  2 H  s          
    19     -0.773152  3 H  s                 10     -0.657489  1 O  dxx        
     4      0.402564  1 O  py                13     -0.393301  1 O  dyy        
    16     -0.352063  2 H  s                 18     -0.352061  3 H  s          

 Vector   14  Occ=0.000000D+00  E= 1.729116D+00
              MO Center=  1.8D-03,  1.7D-01, -8.0D-17, r^2= 6.2D-01
   Bfn.  Coefficient  Atom+Function         Bfn.  Coefficient  Atom+Function  
  ----- ------------  ---------------      ----- ------------  ---------------
    13      1.006792  1 O  dyy               10     -0.595685  1 O  dxx        
    15     -0.343990  1 O  dzz                6     -0.252389  1 O  s          
     8      0.143539  1 O  py                 2      0.090115  1 O  s          
    16      0.081722  2 H  s                 18      0.081722  3 H  s          
    17      0.042254  2 H  s                 19      0.042255  3 H  s          

 Vector   15  Occ=0.000000D+00  E= 1.746379D+00
              MO Center=  1.3D-03,  1.2D-01, -2.0D-16, r^2= 6.1D-01
   Bfn.  Coefficient  Atom+Function         Bfn.  Coefficient  Atom+Function  
  ----- ------------  ---------------      ----- ------------  ---------------
    12      1.731958  1 O  dxz        

 Vector   16  Occ=0.000000D+00  E= 1.779813D+00
              MO Center=  1.5D-03,  1.5D-01,  3.7D-18, r^2= 6.1D-01
   Bfn.  Coefficient  Atom+Function         Bfn.  Coefficient  Atom+Function  
  ----- ------------  ---------------      ----- ------------  ---------------
    14      1.730638  1 O  dyz                9      0.034996  1 O  pz         

 Vector   17  Occ=0.000000D+00  E= 2.280518D+00
              MO Center=  4.7D-05,  3.4D-03,  3.6D-17, r^2= 8.3D-01
   Bfn.  Coefficient  Atom+Function         Bfn.  Coefficient  Atom+Function  
  ----- ------------  ---------------      ----- ------------  ---------------
     6      1.538557  1 O  s                 15     -1.131095  1 O  dzz        
    16     -0.812241  2 H  s                 18     -0.812219  3 H  s          
     8     -0.738902  1 O  py                10      0.736200  1 O  dxx        
     2     -0.514828  1 O  s                 17     -0.141346  2 H  s          
    19     -0.141355  3 H  s                 13      0.070679  1 O  dyy        

 Vector   18  Occ=0.000000D+00  E= 2.577032D+00
              MO Center=  6.7D-04,  6.4D-02, -3.5D-18, r^2= 8.6D-01
   Bfn.  Coefficient  Atom+Function         Bfn.  Coefficient  Atom+Function  
  ----- ------------  ---------------      ----- ------------  ---------------
    11      2.202762  1 O  dxy               16      0.923371  2 H  s          
    18     -0.923414  3 H  s                  7     -0.842314  1 O  px         
    17     -0.050209  2 H  s                 19      0.050198  3 H  s          
     3      0.036986  1 O  px         

 Vector   19  Occ=0.000000D+00  E= 3.551879D+00
              MO Center=  1.2D-03,  1.2D-01, -2.7D-18, r^2= 1.0D+00
   Bfn.  Coefficient  Atom+Function         Bfn.  Coefficient  Atom+Function  
  ----- ------------  ---------------      ----- ------------  ---------------
     6      3.689418  1 O  s                 15     -1.578740  1 O  dzz        
    13     -1.549618  1 O  dyy               10     -1.526090  1 O  dxx        
    17     -0.554498  2 H  s                 19     -0.554506  3 H  s          
     1     -0.467943  1 O  s                  8     -0.333940  1 O  py         
     2      0.286729  1 O  s                  4      0.116591  1 O  py         


     ---------------------------------------------
      Total Density - Mulliken Population Analysis
     ---------------------------------------------

    Atom       Charge   Shell Charges
 -----------   ------   -------------------------------------------------------
    1 O    8     8.77   1.99  0.90  2.92  0.98  1.94  0.04
    2 H    1     0.61   0.48  0.14
    3 H    1     0.61   0.48  0.14

     -------------------------------------------
      Total Density - Lowdin Population Analysis
     -------------------------------------------

    Atom       Charge   Shell Charges
 -----------   ------   -------------------------------------------------------
    1 O    8     8.67   1.98  0.72  2.78  0.50  2.13  0.57
    2 H    1     0.66   0.44  0.22
    3 H    1     0.66   0.44  0.22
 Line search: 
     step= 1.00 grad=-8.0D-08 hess= 5.8D-08 energy=    -76.408955 mode=accept  
 new step= 1.00                   predicted energy=    -76.408955

          --------
          Step   3
          --------

                                 NWChem DFT Module
                                 -----------------


                                     cpd08316




  The DFT is already converged 

         Total DFT energy =    -76.408954524846



                         DFT ENERGY GRADIENTS

    atom               coordinates                        gradient
                 x          y          z           x          y          z
   1 O       0.002371   0.228035   0.000000   -0.000005   0.000036   0.000000
   2 H       1.429819  -0.918220   0.000000    0.000035  -0.000021  -0.000000
   3 H      -1.448461  -0.888453  -0.000000   -0.000029  -0.000016   0.000000


  Step       Energy      Delta E   Gmax     Grms     Xrms     Xmax   Walltime
  ---- ---------------- -------- -------- -------- -------- -------- --------
@    3     -76.40895452 -2.1D-08  0.00004  0.00002  0.00013  0.00025      5.8
                                     ok       ok       ok       ok  


      ----------------------
      Optimization converged
      ----------------------


  Step       Energy      Delta E   Gmax     Grms     Xrms     Xmax   Walltime
  ---- ---------------- -------- -------- -------- -------- -------- --------
@    3     -76.40895452 -2.1D-08  0.00004  0.00002  0.00013  0.00025      5.8
                                     ok       ok       ok       ok  



                         Geometry "geometry" -> "geometry"
                         ---------------------------------

 Output coordinates in angstroms (scale by  1.889725989 to convert to a.u.)

  No.       Tag          Charge          X              Y              Z
 ---- ---------------- ---------- -------------- -------------- --------------
    1 O                    8.0000     0.00125490     0.12067068     0.00000000
    2 H                    1.0000     0.75662757    -0.48590138     0.00000000
    3 H                    1.0000    -0.76649247    -0.47014930    -0.00000000

      Atomic Mass 
      ----------- 

      O                 15.994910
      H                  1.007825


 Effective nuclear repulsion energy (a.u.)       9.0872110629

            Nuclear Dipole moment (a.u.) 
            ----------------------------
        X                 Y               Z
 ---------------- ---------------- ----------------
     0.0003294358     0.0176022919     0.0000000000



                                NWChem Input Module
                                -------------------


                              NWChem Property Module
                              ----------------------


                                 NWChem DFT Module
                                 -----------------


                                     cpd08316



  Caching 1-el integrals 
   Time after variat. SCF:      5.9

     ---------------------------------------------
      Total Density - Mulliken Population Analysis
     ---------------------------------------------

    Atom       Charge   Shell Charges
 -----------   ------   -------------------------------------------------------
    1 O    8     8.77   1.99  0.90  2.92  0.98  1.94  0.04
    2 H    1     0.61   0.48  0.14
    3 H    1     0.61   0.48  0.14
   Time prior to 1st pass:      5.9


         Total DFT energy =      -76.408953971307
      One electron energy =     -122.935011967945
           Coulomb energy =       46.782056718146
    Exchange-Corr. energy =       -9.343209784424
 Nuclear repulsion energy =        9.087211062916

 Numeric. integr. density =       10.000000399787

     Total iterative time =      0.5s



                       DFT Final Molecular Orbital Analysis
                       ------------------------------------

 Vector    1  Occ=2.000000D+00  E=-1.913818D+01
              MO Center=  1.3D-03,  1.2D-01, -5.7D-19, r^2= 1.5D-02
   Bfn.  Coefficient  Atom+Function         Bfn.  Coefficient  Atom+Function  
  ----- ------------  ---------------      ----- ------------  ---------------
     1      0.992860  1 O  s                  2      0.026224  1 O  s          

 Vector    2  Occ=2.000000D+00  E=-9.978599D-01
              MO Center= -8.9D-04, -8.7D-02, -2.9D-15, r^2= 5.1D-01
   Bfn.  Coefficient  Atom+Function         Bfn.  Coefficient  Atom+Function  
  ----- ------------  ---------------      ----- ------------  ---------------
     2      0.469217  1 O  s                  6      0.439549  1 O  s          
     1     -0.209504  1 O  s                 16      0.139128  2 H  s          
    18      0.139130  3 H  s                  4     -0.127668  1 O  py         
     8     -0.060653  1 O  py         

 Vector    3  Occ=2.000000D+00  E=-5.171236D-01
              MO Center= -1.1D-03, -1.1D-01, -3.8D-16, r^2= 7.9D-01
   Bfn.  Coefficient  Atom+Function         Bfn.  Coefficient  Atom+Function  
  ----- ------------  ---------------      ----- ------------  ---------------
     3      0.517401  1 O  px                 7      0.269754  1 O  px         
    16      0.237434  2 H  s                 18     -0.237435  3 H  s          
    17      0.141962  2 H  s                 19     -0.141961  3 H  s          
    11     -0.071465  1 O  dxy        

 Vector    4  Occ=2.000000D+00  E=-3.722076D-01
              MO Center=  2.1D-03,  2.0D-01, -1.1D-14, r^2= 7.0D-01
   Bfn.  Coefficient  Atom+Function         Bfn.  Coefficient  Atom+Function  
  ----- ------------  ---------------      ----- ------------  ---------------
     4      0.551782  1 O  py                 6      0.410416  1 O  s          
     8      0.372129  1 O  py                 2      0.177251  1 O  s          
    16     -0.143737  2 H  s                 18     -0.143736  3 H  s          
    17     -0.114294  2 H  s                 19     -0.114293  3 H  s          
     1     -0.088094  1 O  s                 13     -0.052414  1 O  dyy        

 Vector    5  Occ=2.000000D+00  E=-2.911854D-01
              MO Center=  1.0D-03,  1.0D-01,  6.6D-15, r^2= 6.0D-01
   Bfn.  Coefficient  Atom+Function         Bfn.  Coefficient  Atom+Function  
  ----- ------------  ---------------      ----- ------------  ---------------
     5      0.644581  1 O  pz                 9      0.506045  1 O  pz         
    14     -0.061370  1 O  dyz        

 Vector    6  Occ=0.000000D+00  E= 6.258726D-02
              MO Center= -6.4D-03, -6.2D-01, -1.8D-15, r^2= 2.4D+00
   Bfn.  Coefficient  Atom+Function         Bfn.  Coefficient  Atom+Function  
  ----- ------------  ---------------      ----- ------------  ---------------
     6      1.257693  1 O  s                 17     -0.969012  2 H  s          
    19     -0.968989  3 H  s                  8     -0.477439  1 O  py         
     4     -0.280681  1 O  py                 2      0.119308  1 O  s          
     1     -0.100642  1 O  s                 16     -0.096303  2 H  s          
    18     -0.096298  3 H  s                 15     -0.058035  1 O  dzz        

 Vector    7  Occ=0.000000D+00  E= 1.481040D-01
              MO Center= -5.9D-03, -5.7D-01, -4.4D-17, r^2= 2.5D+00
   Bfn.  Coefficient  Atom+Function         Bfn.  Coefficient  Atom+Function  
  ----- ------------  ---------------      ----- ------------  ---------------
    17      1.277638  2 H  s                 19     -1.277673  3 H  s          
     7     -0.758748  1 O  px                 3     -0.413452  1 O  px         
    16      0.107366  2 H  s                 18     -0.107365  3 H  s          
    11      0.031921  1 O  dxy        

 Vector    8  Occ=0.000000D+00  E= 7.724511D-01
              MO Center= -1.5D-03, -1.5D-01, -5.6D-16, r^2= 1.6D+00
   Bfn.  Coefficient  Atom+Function         Bfn.  Coefficient  Atom+Function  
  ----- ------------  ---------------      ----- ------------  ---------------
    16      0.840235  2 H  s                 18     -0.840187  3 H  s          
    17     -0.655477  2 H  s                 19      0.655429  3 H  s          
     7     -0.430252  1 O  px                11     -0.339468  1 O  dxy        
     3     -0.172279  1 O  px         

 Vector    9  Occ=0.000000D+00  E= 8.608753D-01
              MO Center= -2.2D-03, -2.1D-01, -1.1D-13, r^2= 1.3D+00
   Bfn.  Coefficient  Atom+Function         Bfn.  Coefficient  Atom+Function  
  ----- ------------  ---------------      ----- ------------  ---------------
    16      0.712006  2 H  s                 18      0.712058  3 H  s          
     4      0.707437  1 O  py                17     -0.552291  2 H  s          
    19     -0.552310  3 H  s                  8     -0.382727  1 O  py         
    10      0.153418  1 O  dxx                2     -0.135950  1 O  s          
     6      0.136111  1 O  s                 15     -0.119437  1 O  dzz        

 Vector   10  Occ=0.000000D+00  E= 8.907809D-01
              MO Center=  1.2D-03,  1.2D-01, -8.6D-13, r^2= 1.1D+00
   Bfn.  Coefficient  Atom+Function         Bfn.  Coefficient  Atom+Function  
  ----- ------------  ---------------      ----- ------------  ---------------
     9     -1.038624  1 O  pz                 5      0.959433  1 O  pz         
    14      0.028412  1 O  dyz        

 Vector   11  Occ=0.000000D+00  E= 8.950841D-01
              MO Center=  3.4D-03,  3.2D-01,  9.5D-13, r^2= 1.4D+00
   Bfn.  Coefficient  Atom+Function         Bfn.  Coefficient  Atom+Function  
  ----- ------------  ---------------      ----- ------------  ---------------
     6      1.409901  1 O  s                  2     -0.835960  1 O  s          
     8      0.827704  1 O  py                 4     -0.558794  1 O  py         
    16      0.467387  2 H  s                 18      0.467399  3 H  s          
    17     -0.373126  2 H  s                 19     -0.373118  3 H  s          
    15     -0.327383  1 O  dzz               13     -0.276894  1 O  dyy        

 Vector   12  Occ=0.000000D+00  E= 1.065777D+00
              MO Center=  1.1D-03,  1.0D-01, -9.3D-16, r^2= 1.5D+00
   Bfn.  Coefficient  Atom+Function         Bfn.  Coefficient  Atom+Function  
  ----- ------------  ---------------      ----- ------------  ---------------
     7      1.628018  1 O  px                 3     -0.989161  1 O  px         
    17     -0.926446  2 H  s                 19      0.926461  3 H  s          
    11      0.027829  1 O  dxy        

 Vector   13  Occ=0.000000D+00  E= 1.193419D+00
              MO Center= -3.8D-03, -3.7D-01,  2.3D-14, r^2= 1.4D+00
   Bfn.  Coefficient  Atom+Function         Bfn.  Coefficient  Atom+Function  
  ----- ------------  ---------------      ----- ------------  ---------------
     6      3.596590  1 O  s                  2     -1.457475  1 O  s          
     8     -1.105521  1 O  py                17     -0.773131  2 H  s          
    19     -0.773154  3 H  s                 10     -0.657489  1 O  dxx        
     4      0.402566  1 O  py                13     -0.393302  1 O  dyy        
    16     -0.352062  2 H  s                 18     -0.352060  3 H  s          

 Vector   14  Occ=0.000000D+00  E= 1.729119D+00
              MO Center=  1.8D-03,  1.7D-01,  4.9D-16, r^2= 6.2D-01
   Bfn.  Coefficient  Atom+Function         Bfn.  Coefficient  Atom+Function  
  ----- ------------  ---------------      ----- ------------  ---------------
    13      1.006793  1 O  dyy               10     -0.595684  1 O  dxx        
    15     -0.343989  1 O  dzz                6     -0.252393  1 O  s          
     8      0.143542  1 O  py                 2      0.090116  1 O  s          
    16      0.081724  2 H  s                 18      0.081723  3 H  s          
    17      0.042255  2 H  s                 19      0.042256  3 H  s          

 Vector   15  Occ=0.000000D+00  E= 1.746382D+00
              MO Center=  1.3D-03,  1.2D-01,  1.7D-15, r^2= 6.1D-01
   Bfn.  Coefficient  Atom+Function         Bfn.  Coefficient  Atom+Function  
  ----- ------------  ---------------      ----- ------------  ---------------
    12      1.731958  1 O  dxz        

 Vector   16  Occ=0.000000D+00  E= 1.779817D+00
              MO Center=  1.5D-03,  1.5D-01,  6.1D-16, r^2= 6.1D-01
   Bfn.  Coefficient  Atom+Function         Bfn.  Coefficient  Atom+Function  
  ----- ------------  ---------------      ----- ------------  ---------------
    14      1.730638  1 O  dyz                9      0.034996  1 O  pz         

 Vector   17  Occ=0.000000D+00  E= 2.280522D+00
              MO Center=  4.7D-05,  3.4D-03,  1.4D-15, r^2= 8.3D-01
   Bfn.  Coefficient  Atom+Function         Bfn.  Coefficient  Atom+Function  
  ----- ------------  ---------------      ----- ------------  ---------------
     6      1.538550  1 O  s                 15     -1.131095  1 O  dzz        
    16     -0.812239  2 H  s                 18     -0.812217  3 H  s          
     8     -0.738899  1 O  py                10      0.736202  1 O  dxx        
     2     -0.514827  1 O  s                 17     -0.141345  2 H  s          
    19     -0.141354  3 H  s                 13      0.070681  1 O  dyy        

 Vector   18  Occ=0.000000D+00  E= 2.577035D+00
              MO Center=  6.7D-04,  6.4D-02,  1.4D-16, r^2= 8.6D-01
   Bfn.  Coefficient  Atom+Function         Bfn.  Coefficient  Atom+Function  
  ----- ------------  ---------------      ----- ------------  ---------------
    11      2.202762  1 O  dxy               16      0.923369  2 H  s          
    18     -0.923413  3 H  s                  7     -0.842313  1 O  px         
    17     -0.050209  2 H  s                 19      0.050198  3 H  s          
     3      0.036987  1 O  px         

 Vector   19  Occ=0.000000D+00  E= 3.551887D+00
              MO Center=  1.2D-03,  1.2D-01,  6.2D-16, r^2= 1.0D+00
   Bfn.  Coefficient  Atom+Function         Bfn.  Coefficient  Atom+Function  
  ----- ------------  ---------------      ----- ------------  ---------------
     6      3.689416  1 O  s                 15     -1.578741  1 O  dzz        
    13     -1.549617  1 O  dyy               10     -1.526089  1 O  dxx        
    17     -0.554497  2 H  s                 19     -0.554506  3 H  s          
     1     -0.467944  1 O  s                  8     -0.333941  1 O  py         
     2      0.286731  1 O  s                  4      0.116591  1 O  py         


     ---------------------------------------------
      Total Density - Mulliken Population Analysis
     ---------------------------------------------

    Atom       Charge   Shell Charges
 -----------   ------   -------------------------------------------------------
    1 O    8     8.77   1.99  0.90  2.92  0.98  1.94  0.04
    2 H    1     0.61   0.48  0.14
    3 H    1     0.61   0.48  0.14

     -------------------------------------------
      Total Density - Lowdin Population Analysis
     -------------------------------------------

    Atom       Charge   Shell Charges
 -----------   ------   -------------------------------------------------------
    1 O    8     8.67   1.98  0.72  2.78  0.50  2.13  0.57
    2 H    1     0.66   0.44  0.22
    3 H    1     0.66   0.44  0.22

          -------------
          Dipole Moment
          -------------

 Center of charge (in au) is the expansion point
         X =       0.0000329 Y =       0.0017602 Z =       0.0000000

   Dipole moment        0.8243635532 A.U.
             DMX       -0.0085218002 DMXEFC        0.0000000000
             DMY       -0.8243195052 DMYEFC        0.0000000000
             DMZ        0.0000000000 DMZEFC        0.0000000000
   -EFC- dipole         0.0000000000 A.U.
   Total dipole         0.8243635532 A.U.

   Dipole moment        2.0953389873 Debye(s)
             DMX       -0.0216604193 DMXEFC        0.0000000000
             DMY       -2.0952270277 DMYEFC        0.0000000000
             DMZ        0.0000000000 DMZEFC        0.0000000000
   -EFC- dipole         0.0000000000 DEBYE(S)
   Total dipole         2.0953389873 DEBYE(S)

 1 a.u. = 2.541766 Debyes 


                                NWChem Input Module
                                -------------------




                                     CITATION
                                     --------
                Please cite the following reference when publishing
                           results obtained with NWChem:

                 M. Valiev, E.J. Bylaska, N. Govind, K. Kowalski,
              T.P. Straatsma, H.J.J. van Dam, D. Wang, J. Nieplocha,
                        E. Apra, T.L. Windus, W.A. de Jong
                 "NWChem: a comprehensive and scalable open-source
                  solution for large scale molecular simulations"
                      Comput. Phys. Commun. 181, 1477 (2010)
                           doi:10.1016/j.cpc.2010.04.018

                                      AUTHORS
                                      -------
          E. Apra, E. J. Bylaska, W. A. de Jong, N. Govind, K. Kowalski,
       T. P. Straatsma, M. Valiev, H. J. J. van Dam, D. Wang, T. L. Windus,
        J. Hammond, J. Autschbach, K. Bhaskaran-Nair, J. Brabec, K. Lopata,
    S. A. Fischer, S. Krishnamoorthy, M. Jacquelin, W. Ma, M. Klemm, O. Villa,
      Y. Chen, V. Anisimov, F. Aquino, S. Hirata, M. T. Hackler, V. Konjkov,
            D. Mejia-Rodriguez, T. Risthaus, M. Malagoli, A. Marenich,
   A. Otero-de-la-Roza, J. Mullin, P. Nichols, R. Peverati, J. Pittner, Y. Zhao,
        P.-D. Fan, A. Fonari, M. J. Williamson, R. J. Harrison, J. R. Rehr,
      M. Dupuis, D. Silverstein, D. M. A. Smith, J. Nieplocha, V. Tipparaju,
    M. Krishnan, B. E. Van Kuiken, A. Vazquez-Mayagoitia, L. Jensen, M. Swart,
      Q. Wu, T. Van Voorhis, A. A. Auer, M. Nooijen, L. D. Crosby, E. Brown,
      G. Cisneros, G. I. Fann, H. Fruchtl, J. Garza, K. Hirao, R. A. Kendall,
      J. A. Nichols, K. Tsemekhman, K. Wolinski, J. Anchell, D. E. Bernholdt,
      P. Borowski, T. Clark, D. Clerc, H. Dachsel, M. J. O. Deegan, K. Dyall,
    D. Elwood, E. Glendening, M. Gutowski, A. C. Hess, J. Jaffe, B. G. Johnson,
     J. Ju, R. Kobayashi, R. Kutteh, Z. Lin, R. Littlefield, X. Long, B. Meng,
      T. Nakajima, S. Niu, L. Pollack, M. Rosing, K. Glaesemann, G. Sandrone,
      M. Stave, H. Taylor, G. Thomas, J. H. van Lenthe, A. T. Wong, Z. Zhang.

 Total times  cpu:        3.3s     wall:        7.0s
