--------------------------------------------------------------------------
[[4848,1],1]: A high-performance Open MPI point-to-point messaging module
was unable to find any relevant network interfaces:

Module: OpenFabrics (openib)
  Host: 2274251cca31

Another transport will be used instead, although this may result in
lower performance.
--------------------------------------------------------------------------
 argument  1 = cpd03113.nw



============================== echo of input deck ==============================
title "cpd03113"
start cpd03113

memory global 1600 mb heap 100 mb stack 600 mb

permanent_dir /kb/module/work/tmp/simulation/cpd03113/dft
#scratch_dir /scratch

echo
print low

charge 0
geometry noautoz noautosym
load /kb/module/work/tmp/simulation/cpd03113/dft/cpd03113.xyz
end
basis
* library 6-31G*
end

driver
 maxiter 50
xyz cpd03113_geom
end

set lindep:n_dep 0

dft
  maxiter 100
  xc b3lyp
  mulliken
  print "mulliken ao"
  print "final vectors analysis"
end

task dft optimize ignore
property
 dipole
end

task dft property
================================================================================


                                         
                                         


              Northwest Computational Chemistry Package (NWChem) 6.8
              ------------------------------------------------------


                    Environmental Molecular Sciences Laboratory
                       Pacific Northwest National Laboratory
                                Richland, WA 99352

                              Copyright (c) 1994-2017
                       Pacific Northwest National Laboratory
                            Battelle Memorial Institute

             NWChem is an open-source computational chemistry package
                        distributed under the terms of the
                      Educational Community License (ECL) 2.0
             A copy of the license is included with this distribution
                              in the LICENSE.TXT file

                                  ACKNOWLEDGMENT
                                  --------------

            This software and its documentation were developed at the
            EMSL at Pacific Northwest National Laboratory, a multiprogram
            national laboratory, operated for the U.S. Department of Energy
            by Battelle under Contract Number DE-AC05-76RL01830. Support
            for this work was provided by the Department of Energy Office
            of Biological and Environmental Research, Office of Basic
            Energy Sciences, and the Office of Advanced Scientific Computing.


           Job information
           ---------------

    hostname        = 2274251cca31
    program         = nwchem
    date            = Sun Mar  8 23:28:24 2020

    compiled        = Sat_Mar_07_21:45:49_2020
    source          = /codes/nwchem-6.8.1
    nwchem branch   = 6.8.1
    nwchem revision = v6.8-133-ge032219
    ga revision     = 5.6.5
    use scalapack   = F
    input           = cpd03113.nw
    prefix          = cpd03113.
    data base       = /kb/module/work/tmp/simulation/cpd03113/dft/cpd03113.db
    status          = startup
    nproc           =        2
    time left       =     -1s



           Memory information
           ------------------

    heap     =   13107198 doubles =    100.0 Mbytes
    stack    =   78643195 doubles =    600.0 Mbytes
    global   =  209715200 doubles =   1600.0 Mbytes (distinct from heap & stack)
    total    =  301465593 doubles =   2300.0 Mbytes
    verify   = yes
    hardfail = no 


           Directory information
           ---------------------

  0 permanent = /kb/module/work/tmp/simulation/cpd03113/dft
  0 scratch   = .




                                NWChem Input Module
                                -------------------


                                     cpd03113
                                     --------

 Scaling coordinates for geometry "geometry" by  1.889725989
 (inverse scale =  0.529177249)



                             Geometry "geometry" -> ""
                             -------------------------

 Output coordinates in angstroms (scale by  1.889725989 to convert to a.u.)

  No.       Tag          Charge          X              Y              Z
 ---- ---------------- ---------- -------------- -------------- --------------
    1 O                    8.0000     0.00225000     0.11932000     0.00000000
    2 H                    1.0000    -0.77235000    -0.46278000     0.00000000
    3 H                    1.0000     0.75435000    -0.49178000     0.00000000

      Atomic Mass 
      ----------- 

      O                 15.994910
      H                  1.007825


 Effective nuclear repulsion energy (a.u.)       9.0842081648

            Nuclear Dipole moment (a.u.) 
            ----------------------------
        X                 Y               Z
 ---------------- ---------------- ----------------
     0.0000000000     0.0000000000     0.0000000000


            XYZ format geometry
            -------------------
     3
 geometry
 O                     0.00225000     0.11932000     0.00000000
 H                    -0.77235000    -0.46278000     0.00000000
 H                     0.75435000    -0.49178000     0.00000000

 ==============================================================================
                                internuclear distances
 ------------------------------------------------------------------------------
       center one      |      center two      | atomic units |  angstroms
 ------------------------------------------------------------------------------
    2 H                |   1 O                |     1.83103  |     0.96894
    3 H                |   1 O                |     1.83128  |     0.96907
 ------------------------------------------------------------------------------
                         number of included internuclear distances:          2
 ==============================================================================



 ==============================================================================
                                 internuclear angles
 ------------------------------------------------------------------------------
        center 1       |       center 2       |       center 3       |  degrees
 ------------------------------------------------------------------------------
    2 H                |   1 O                |   3 H                |   103.98
 ------------------------------------------------------------------------------
                            number of included internuclear angles:          1
 ==============================================================================



  library name resolved from: environment
  library file name is: </codes/nwchem-6.8.1/data/libraries/>
  


 Summary of "ao basis" -> "" (cartesian)
 ------------------------------------------------------------------------------
       Tag                 Description            Shells   Functions and Types
 ---------------- ------------------------------  ------  ---------------------
 *                           6-31G*                   on all atoms 




                           NWChem Geometry Optimization
                           ----------------------------




                                     cpd03113


 maximum gradient threshold         (gmax) =   0.000450
 rms gradient threshold             (grms) =   0.000300
 maximum cartesian step threshold   (xmax) =   0.001800
 rms cartesian step threshold       (xrms) =   0.001200
 fixed trust radius                (trust) =   0.300000
 maximum step size to saddle      (sadstp) =   0.100000
 energy precision                  (eprec) =   5.0D-06
 maximum number of steps          (nptopt) =   50
 initial hessian option           (inhess) =    0
 line search option               (linopt) =    1
 hessian update option            (modupd) =    1
 saddle point option              (modsad) =    0
 initial eigen-mode to follow     (moddir) =    0
 initial variable to follow       (vardir) =    0
 follow first negative mode     (firstneg) =    T
 apply conjugacy                    (opcg) =    F
 source of zmatrix                         =           


          -------------------
          Energy Minimization
          -------------------


 Using diagonal initial Hessian 

          --------
          Step   0
          --------

                                 NWChem DFT Module
                                 -----------------


                                     cpd03113


                      Basis "ao basis" -> "ao basis" (cartesian)
                      -----
  O (Oxygen)
  ----------
            Exponent  Coefficients 
       -------------- ---------------------------------------------------------
  1 S  5.48467170E+03  0.001831
  1 S  8.25234950E+02  0.013950
  1 S  1.88046960E+02  0.068445
  1 S  5.29645000E+01  0.232714
  1 S  1.68975700E+01  0.470193
  1 S  5.79963530E+00  0.358521

  2 S  1.55396160E+01 -0.110778
  2 S  3.59993360E+00 -0.148026
  2 S  1.01376180E+00  1.130767

  3 P  1.55396160E+01  0.070874
  3 P  3.59993360E+00  0.339753
  3 P  1.01376180E+00  0.727159

  4 S  2.70005800E-01  1.000000

  5 P  2.70005800E-01  1.000000

  6 D  8.00000000E-01  1.000000

  H (Hydrogen)
  ------------
            Exponent  Coefficients 
       -------------- ---------------------------------------------------------
  1 S  1.87311370E+01  0.033495
  1 S  2.82539370E+00  0.234727
  1 S  6.40121700E-01  0.813757

  2 S  1.61277800E-01  1.000000



 Summary of "ao basis" -> "ao basis" (cartesian)
 ------------------------------------------------------------------------------
       Tag                 Description            Shells   Functions and Types
 ---------------- ------------------------------  ------  ---------------------
 O                           6-31G*                  6       15   3s2p1d
 H                           6-31G*                  2        2   2s



  Caching 1-el integrals 
   Time after variat. SCF:      0.4

     ---------------------------------------------
      Total Density - Mulliken Population Analysis
     ---------------------------------------------

    Atom       Charge   Shell Charges
 -----------   ------   -------------------------------------------------------
    1 O    8     9.06   2.00  0.94  3.12  0.86  2.08  0.06
    2 H    1     0.47   0.36  0.11
    3 H    1     0.47   0.36  0.11
   Time prior to 1st pass:      0.4


         Total DFT energy =      -76.408951292519
      One electron energy =     -122.931050693014
           Coulomb energy =       46.780915890512
    Exchange-Corr. energy =       -9.343024654819
 Nuclear repulsion energy =        9.084208164802

 Numeric. integr. density =       10.000001206396

     Total iterative time =      0.7s



                       DFT Final Molecular Orbital Analysis
                       ------------------------------------

 Vector    1  Occ=2.000000D+00  E=-1.913804D+01
              MO Center=  2.2D-03,  1.2D-01, -8.4D-16, r^2= 1.5D-02
   Bfn.  Coefficient  Atom+Function         Bfn.  Coefficient  Atom+Function  
  ----- ------------  ---------------      ----- ------------  ---------------
     1      0.992860  1 O  s                  2      0.026223  1 O  s          

 Vector    2  Occ=2.000000D+00  E=-9.974674D-01
              MO Center= -1.7D-03, -8.7D-02, -1.9D-13, r^2= 5.1D-01
   Bfn.  Coefficient  Atom+Function         Bfn.  Coefficient  Atom+Function  
  ----- ------------  ---------------      ----- ------------  ---------------
     2      0.469322  1 O  s                  6      0.439866  1 O  s          
     1     -0.209566  1 O  s                 16      0.139006  2 H  s          
    18      0.138958  3 H  s                  4     -0.127221  1 O  py         
     8     -0.060499  1 O  py         

 Vector    3  Occ=2.000000D+00  E=-5.175869D-01
              MO Center= -2.0D-03, -1.1D-01, -4.0D-14, r^2= 7.9D-01
   Bfn.  Coefficient  Atom+Function         Bfn.  Coefficient  Atom+Function  
  ----- ------------  ---------------      ----- ------------  ---------------
     3      0.517127  1 O  px                 7      0.269464  1 O  px         
    16     -0.237580  2 H  s                 18      0.237573  3 H  s          
    17     -0.141637  2 H  s                 19      0.141653  3 H  s          
    11     -0.071248  1 O  dxy        

 Vector    4  Occ=2.000000D+00  E=-3.715201D-01
              MO Center=  3.7D-03,  2.0D-01,  3.8D-13, r^2= 7.0D-01
   Bfn.  Coefficient  Atom+Function         Bfn.  Coefficient  Atom+Function  
  ----- ------------  ---------------      ----- ------------  ---------------
     4      0.552123  1 O  py                 6      0.409574  1 O  s          
     8      0.372804  1 O  py                 2      0.176729  1 O  s          
    16     -0.143461  2 H  s                 18     -0.143484  3 H  s          
    17     -0.114249  2 H  s                 19     -0.114283  3 H  s          
     1     -0.087854  1 O  s                 13     -0.052286  1 O  dyy        

 Vector    5  Occ=2.000000D+00  E=-2.910557D-01
              MO Center=  1.9D-03,  9.9D-02, -1.3D-12, r^2= 6.0D-01
   Bfn.  Coefficient  Atom+Function         Bfn.  Coefficient  Atom+Function  
  ----- ------------  ---------------      ----- ------------  ---------------
     5      0.644549  1 O  pz                 9      0.506084  1 O  pz         
    14     -0.061193  1 O  dyz        

 Vector    6  Occ=0.000000D+00  E= 6.256737D-02
              MO Center= -1.1D-02, -6.2D-01, -2.0D-12, r^2= 2.4D+00
   Bfn.  Coefficient  Atom+Function         Bfn.  Coefficient  Atom+Function  
  ----- ------------  ---------------      ----- ------------  ---------------
     6      1.258089  1 O  s                 17     -0.968877  2 H  s          
    19     -0.969301  3 H  s                  8     -0.476273  1 O  py         
     4     -0.280203  1 O  py                 2      0.119599  1 O  s          
     1     -0.100778  1 O  s                 16     -0.096710  2 H  s          
    18     -0.096802  3 H  s                 15     -0.057995  1 O  dzz        

 Vector    7  Occ=0.000000D+00  E= 1.481049D-01
              MO Center= -1.1D-02, -5.7D-01, -2.3D-15, r^2= 2.5D+00
   Bfn.  Coefficient  Atom+Function         Bfn.  Coefficient  Atom+Function  
  ----- ------------  ---------------      ----- ------------  ---------------
    17      1.276949  2 H  s                 19     -1.276292  3 H  s          
     7      0.759303  1 O  px                 3      0.413402  1 O  px         
    16      0.106959  2 H  s                 18     -0.106967  3 H  s          
    11     -0.031976  1 O  dxy        

 Vector    8  Occ=0.000000D+00  E= 7.735672D-01
              MO Center= -2.0D-03, -1.5D-01, -9.9D-15, r^2= 1.6D+00
   Bfn.  Coefficient  Atom+Function         Bfn.  Coefficient  Atom+Function  
  ----- ------------  ---------------      ----- ------------  ---------------
    16      0.840077  2 H  s                 18     -0.841007  3 H  s          
    17     -0.654153  2 H  s                 19      0.655082  3 H  s          
     7      0.429210  1 O  px                11      0.340234  1 O  dxy        
     3      0.174545  1 O  px         

 Vector    9  Occ=0.000000D+00  E= 8.597434D-01
              MO Center= -5.1D-03, -2.3D-01, -3.5D-11, r^2= 1.3D+00
   Bfn.  Coefficient  Atom+Function         Bfn.  Coefficient  Atom+Function  
  ----- ------------  ---------------      ----- ------------  ---------------
    16      0.723882  2 H  s                 18      0.722865  3 H  s          
     4      0.692195  1 O  py                17     -0.559251  2 H  s          
    19     -0.558865  3 H  s                  8     -0.361184  1 O  py         
     6      0.158269  1 O  s                 10      0.152068  1 O  dxx        
     2     -0.150534  1 O  s                 15     -0.125201  1 O  dzz        

 Vector   10  Occ=0.000000D+00  E= 8.908634D-01
              MO Center=  2.2D-03,  1.2D-01,  1.9D-10, r^2= 1.1D+00
   Bfn.  Coefficient  Atom+Function         Bfn.  Coefficient  Atom+Function  
  ----- ------------  ---------------      ----- ------------  ---------------
     9     -1.038609  1 O  pz                 5      0.959454  1 O  pz         
    14      0.028289  1 O  dyz        

 Vector   11  Occ=0.000000D+00  E= 8.947753D-01
              MO Center=  6.6D-03,  3.4D-01, -1.4D-10, r^2= 1.4D+00
   Bfn.  Coefficient  Atom+Function         Bfn.  Coefficient  Atom+Function  
  ----- ------------  ---------------      ----- ------------  ---------------
     6      1.395515  1 O  s                  8      0.838908  1 O  py         
     2     -0.827390  1 O  s                  4     -0.576989  1 O  py         
    16      0.451694  2 H  s                 18      0.451480  3 H  s          
    17     -0.359027  2 H  s                 19     -0.359164  3 H  s          
    15     -0.322795  1 O  dzz               13     -0.276122  1 O  dyy        

 Vector   12  Occ=0.000000D+00  E= 1.066027D+00
              MO Center=  1.8D-03,  1.0D-01,  1.7D-14, r^2= 1.5D+00
   Bfn.  Coefficient  Atom+Function         Bfn.  Coefficient  Atom+Function  
  ----- ------------  ---------------      ----- ------------  ---------------
     7      1.630091  1 O  px                 3     -0.988857  1 O  px         
    17      0.925170  2 H  s                 19     -0.924885  3 H  s          
     8     -0.030967  1 O  py                11      0.029598  1 O  dxy        

 Vector   13  Occ=0.000000D+00  E= 1.192177D+00
              MO Center= -7.1D-03, -3.7D-01, -1.1D-11, r^2= 1.4D+00
   Bfn.  Coefficient  Atom+Function         Bfn.  Coefficient  Atom+Function  
  ----- ------------  ---------------      ----- ------------  ---------------
     6      3.600873  1 O  s                  2     -1.461055  1 O  s          
     8     -1.100054  1 O  py                17     -0.775961  2 H  s          
    19     -0.775525  3 H  s                 10     -0.657413  1 O  dxx        
     4      0.402674  1 O  py                13     -0.392846  1 O  dyy        
    16     -0.346986  2 H  s                 18     -0.347025  3 H  s          

 Vector   14  Occ=0.000000D+00  E= 1.730146D+00
              MO Center=  3.2D-03,  1.7D-01, -1.4D-14, r^2= 6.2D-01
   Bfn.  Coefficient  Atom+Function         Bfn.  Coefficient  Atom+Function  
  ----- ------------  ---------------      ----- ------------  ---------------
    13      1.007410  1 O  dyy               10     -0.590132  1 O  dxx        
    15     -0.349938  1 O  dzz                6     -0.253103  1 O  s          
     8      0.143443  1 O  py                 2      0.090352  1 O  s          
    16      0.082296  2 H  s                 18      0.082304  3 H  s          
    11      0.060558  1 O  dxy               17      0.042184  2 H  s          

 Vector   15  Occ=0.000000D+00  E= 1.746189D+00
              MO Center=  2.3D-03,  1.2D-01,  9.4D-15, r^2= 6.1D-01
   Bfn.  Coefficient  Atom+Function         Bfn.  Coefficient  Atom+Function  
  ----- ------------  ---------------      ----- ------------  ---------------
    12      1.731746  1 O  dxz               14     -0.032483  1 O  dyz        

 Vector   16  Occ=0.000000D+00  E= 1.780244D+00
              MO Center=  2.7D-03,  1.4D-01,  5.1D-14, r^2= 6.1D-01
   Bfn.  Coefficient  Atom+Function         Bfn.  Coefficient  Atom+Function  
  ----- ------------  ---------------      ----- ------------  ---------------
    14      1.730433  1 O  dyz                9      0.034876  1 O  pz         
    12      0.032457  1 O  dxz        

 Vector   17  Occ=0.000000D+00  E= 2.280328D+00
              MO Center=  1.5D-04,  3.2D-03, -1.6D-14, r^2= 8.3D-01
   Bfn.  Coefficient  Atom+Function         Bfn.  Coefficient  Atom+Function  
  ----- ------------  ---------------      ----- ------------  ---------------
     6      1.533694  1 O  s                 15     -1.128742  1 O  dzz        
    16     -0.810641  2 H  s                 18     -0.811056  3 H  s          
    10      0.741683  1 O  dxx                8     -0.734435  1 O  py         
     2     -0.513470  1 O  s                 17     -0.140248  2 H  s          
    19     -0.140084  3 H  s                 13      0.063717  1 O  dyy        

 Vector   18  Occ=0.000000D+00  E= 2.577142D+00
              MO Center=  1.1D-03,  6.3D-02,  2.0D-14, r^2= 8.7D-01
   Bfn.  Coefficient  Atom+Function         Bfn.  Coefficient  Atom+Function  
  ----- ------------  ---------------      ----- ------------  ---------------
    11      2.200724  1 O  dxy               16     -0.924346  2 H  s          
    18      0.923520  3 H  s                  7     -0.846267  1 O  px         
    17      0.048681  2 H  s                 19     -0.048877  3 H  s          
    10      0.041977  1 O  dxx               13     -0.041698  1 O  dyy        
     3      0.037768  1 O  px         

 Vector   19  Occ=0.000000D+00  E= 3.552351D+00
              MO Center=  2.2D-03,  1.2D-01, -2.6D-13, r^2= 1.0D+00
   Bfn.  Coefficient  Atom+Function         Bfn.  Coefficient  Atom+Function  
  ----- ------------  ---------------      ----- ------------  ---------------
     6      3.689936  1 O  s                 15     -1.578675  1 O  dzz        
    13     -1.550004  1 O  dyy               10     -1.526240  1 O  dxx        
    17     -0.555002  2 H  s                 19     -0.554844  3 H  s          
     1     -0.467974  1 O  s                  8     -0.332689  1 O  py         
     2      0.286622  1 O  s                  4      0.116234  1 O  py         


     ---------------------------------------------
      Total Density - Mulliken Population Analysis
     ---------------------------------------------

    Atom       Charge   Shell Charges
 -----------   ------   -------------------------------------------------------
    1 O    8     8.77   1.99  0.90  2.92  0.98  1.94  0.04
    2 H    1     0.61   0.48  0.14
    3 H    1     0.61   0.48  0.14

     -------------------------------------------
      Total Density - Lowdin Population Analysis
     -------------------------------------------

    Atom       Charge   Shell Charges
 -----------   ------   -------------------------------------------------------
    1 O    8     8.67   1.98  0.72  2.78  0.50  2.13  0.57
    2 H    1     0.66   0.44  0.22
    3 H    1     0.66   0.44  0.22


                         DFT ENERGY GRADIENTS

    atom               coordinates                        gradient
                 x          y          z           x          y          z
   1 O       0.004252   0.225482   0.000000   -0.000108  -0.000365  -0.000000
   2 H      -1.459530  -0.874527   0.000000   -0.000641   0.000235   0.000000
   3 H       1.425515  -0.929329   0.000000    0.000749   0.000130   0.000000


@ Step       Energy      Delta E   Gmax     Grms     Xrms     Xmax   Walltime
@ ---- ---------------- -------- -------- -------- -------- -------- --------
@    0     -76.40895129  0.0D+00  0.00075  0.00036  0.00000  0.00000      1.8
                                                                    


                                 NWChem DFT Module
                                 -----------------


                                     cpd03113



  Caching 1-el integrals 
   Time after variat. SCF:      1.9

     ---------------------------------------------
      Total Density - Mulliken Population Analysis
     ---------------------------------------------

    Atom       Charge   Shell Charges
 -----------   ------   -------------------------------------------------------
    1 O    8     8.77   1.99  0.90  2.92  0.98  1.94  0.04
    2 H    1     0.61   0.48  0.14
    3 H    1     0.61   0.48  0.14
   Time prior to 1st pass:      1.9


         Total DFT energy =      -76.408951000974
      One electron energy =     -122.926922692601
           Coulomb energy =       46.777246290702
    Exchange-Corr. energy =       -9.342714548210
 Nuclear repulsion energy =        9.083439949134

 Numeric. integr. density =       10.000000976813

     Total iterative time =      0.5s



                       DFT Final Molecular Orbital Analysis
                       ------------------------------------

 Vector    1  Occ=2.000000D+00  E=-1.913845D+01
              MO Center=  2.4D-03,  1.2D-01, -2.0D-17, r^2= 1.5D-02
   Bfn.  Coefficient  Atom+Function         Bfn.  Coefficient  Atom+Function  
  ----- ------------  ---------------      ----- ------------  ---------------
     1      0.992861  1 O  s                  2      0.026225  1 O  s          

 Vector    2  Occ=2.000000D+00  E=-9.979669D-01
              MO Center= -1.6D-03, -8.6D-02, -1.9D-15, r^2= 5.1D-01
   Bfn.  Coefficient  Atom+Function         Bfn.  Coefficient  Atom+Function  
  ----- ------------  ---------------      ----- ------------  ---------------
     2      0.469135  1 O  s                  6      0.439548  1 O  s          
     1     -0.209461  1 O  s                 16      0.139112  2 H  s          
    18      0.139130  3 H  s                  4     -0.127959  1 O  py         
     8     -0.060848  1 O  py         

 Vector    3  Occ=2.000000D+00  E=-5.163306D-01
              MO Center= -2.0D-03, -1.1D-01, -7.9D-16, r^2= 7.9D-01
   Bfn.  Coefficient  Atom+Function         Bfn.  Coefficient  Atom+Function  
  ----- ------------  ---------------      ----- ------------  ---------------
     3      0.517456  1 O  px                 7      0.270121  1 O  px         
    16     -0.237213  2 H  s                 18      0.237216  3 H  s          
    17     -0.142473  2 H  s                 19      0.142467  3 H  s          
    11     -0.071600  1 O  dxy        

 Vector    4  Occ=2.000000D+00  E=-3.729132D-01
              MO Center=  3.8D-03,  2.0D-01, -6.6D-15, r^2= 7.0D-01
   Bfn.  Coefficient  Atom+Function         Bfn.  Coefficient  Atom+Function  
  ----- ------------  ---------------      ----- ------------  ---------------
     4      0.551179  1 O  py                 6      0.411232  1 O  s          
     8      0.371248  1 O  py                 2      0.177777  1 O  s          
    16     -0.144104  2 H  s                 18     -0.144096  3 H  s          
    17     -0.114540  2 H  s                 19     -0.114528  3 H  s          
     1     -0.088336  1 O  s                 13     -0.052489  1 O  dyy        

 Vector    5  Occ=2.000000D+00  E=-2.912740D-01
              MO Center=  2.0D-03,  1.0D-01,  3.0D-15, r^2= 6.0D-01
   Bfn.  Coefficient  Atom+Function         Bfn.  Coefficient  Atom+Function  
  ----- ------------  ---------------      ----- ------------  ---------------
     5      0.644634  1 O  pz                 9      0.505985  1 O  pz         
    14     -0.061475  1 O  dyz        

 Vector    6  Occ=0.000000D+00  E= 6.239771D-02
              MO Center= -1.2D-02, -6.2D-01,  5.6D-15, r^2= 2.4D+00
   Bfn.  Coefficient  Atom+Function         Bfn.  Coefficient  Atom+Function  
  ----- ------------  ---------------      ----- ------------  ---------------
     6      1.255605  1 O  s                 17     -0.968209  2 H  s          
    19     -0.968050  3 H  s                  8     -0.478685  1 O  py         
     4     -0.281492  1 O  py                 2      0.119071  1 O  s          
     1     -0.100458  1 O  s                 16     -0.096074  2 H  s          
    18     -0.096039  3 H  s                 15     -0.057999  1 O  dzz        

 Vector    7  Occ=0.000000D+00  E= 1.478324D-01
              MO Center= -1.1D-02, -5.7D-01, -3.2D-17, r^2= 2.5D+00
   Bfn.  Coefficient  Atom+Function         Bfn.  Coefficient  Atom+Function  
  ----- ------------  ---------------      ----- ------------  ---------------
    17      1.277014  2 H  s                 19     -1.277262  3 H  s          
     7      0.757536  1 O  px                 3      0.413650  1 O  px         
    16      0.108067  2 H  s                 18     -0.108064  3 H  s          
    11     -0.031751  1 O  dxy        

 Vector    8  Occ=0.000000D+00  E= 7.709097D-01
              MO Center= -3.2D-03, -1.5D-01,  1.4D-16, r^2= 1.6D+00
   Bfn.  Coefficient  Atom+Function         Bfn.  Coefficient  Atom+Function  
  ----- ------------  ---------------      ----- ------------  ---------------
    16      0.839947  2 H  s                 18     -0.839617  3 H  s          
    17     -0.658777  2 H  s                 19      0.658440  3 H  s          
     7      0.428186  1 O  px                11      0.338298  1 O  dxy        
     3      0.170416  1 O  px         

 Vector    9  Occ=0.000000D+00  E= 8.613305D-01
              MO Center= -3.5D-03, -2.0D-01,  5.9D-15, r^2= 1.3D+00
   Bfn.  Coefficient  Atom+Function         Bfn.  Coefficient  Atom+Function  
  ----- ------------  ---------------      ----- ------------  ---------------
     4      0.718560  1 O  py                16      0.702913  2 H  s          
    18      0.703274  3 H  s                 17     -0.548116  2 H  s          
    19     -0.548249  3 H  s                  8     -0.399477  1 O  py         
    10      0.153429  1 O  dxx                2     -0.125777  1 O  s          
     6      0.122824  1 O  s                 15     -0.115240  1 O  dzz        

 Vector   10  Occ=0.000000D+00  E= 8.906948D-01
              MO Center=  2.3D-03,  1.2D-01, -4.9D-14, r^2= 1.1D+00
   Bfn.  Coefficient  Atom+Function         Bfn.  Coefficient  Atom+Function  
  ----- ------------  ---------------      ----- ------------  ---------------
     9     -1.038650  1 O  pz                 5      0.959398  1 O  pz         
    14      0.028546  1 O  dyz        

 Vector   11  Occ=0.000000D+00  E= 8.953574D-01
              MO Center=  5.9D-03,  3.1D-01,  4.4D-14, r^2= 1.5D+00
   Bfn.  Coefficient  Atom+Function         Bfn.  Coefficient  Atom+Function  
  ----- ------------  ---------------      ----- ------------  ---------------
     6      1.426926  1 O  s                  2     -0.844718  1 O  s          
     8      0.816798  1 O  py                 4     -0.544120  1 O  py         
    16      0.478169  2 H  s                 18      0.478258  3 H  s          
    17     -0.384639  2 H  s                 19     -0.384587  3 H  s          
    15     -0.331444  1 O  dzz               13     -0.277753  1 O  dyy        

 Vector   12  Occ=0.000000D+00  E= 1.065331D+00
              MO Center=  2.1D-03,  1.0D-01,  7.2D-16, r^2= 1.5D+00
   Bfn.  Coefficient  Atom+Function         Bfn.  Coefficient  Atom+Function  
  ----- ------------  ---------------      ----- ------------  ---------------
     7      1.625077  1 O  px                 3     -0.988954  1 O  px         
    17      0.926015  2 H  s                 19     -0.926128  3 H  s          
     8     -0.030818  1 O  py                11      0.026956  1 O  dxy        

 Vector   13  Occ=0.000000D+00  E= 1.194675D+00
              MO Center= -6.8D-03, -3.6D-01, -1.4D-15, r^2= 1.4D+00
   Bfn.  Coefficient  Atom+Function         Bfn.  Coefficient  Atom+Function  
  ----- ------------  ---------------      ----- ------------  ---------------
     6      3.588425  1 O  s                  2     -1.452706  1 O  s          
     8     -1.111264  1 O  py                17     -0.768918  2 H  s          
    19     -0.769080  3 H  s                 10     -0.657256  1 O  dxx        
     4      0.402957  1 O  py                13     -0.393980  1 O  dyy        
    16     -0.357801  2 H  s                 18     -0.357786  3 H  s          

 Vector   14  Occ=0.000000D+00  E= 1.728168D+00
              MO Center=  3.3D-03,  1.7D-01,  9.8D-16, r^2= 6.2D-01
   Bfn.  Coefficient  Atom+Function         Bfn.  Coefficient  Atom+Function  
  ----- ------------  ---------------      ----- ------------  ---------------
    13      1.005186  1 O  dyy               10     -0.601039  1 O  dxx        
    15     -0.337353  1 O  dzz                6     -0.250981  1 O  s          
     8      0.143377  1 O  py                 2      0.089725  1 O  s          
    16      0.080910  2 H  s                 18      0.080907  3 H  s          
    11      0.060999  1 O  dxy               17      0.042196  2 H  s          

 Vector   15  Occ=0.000000D+00  E= 1.746761D+00
              MO Center=  2.4D-03,  1.2D-01, -5.4D-16, r^2= 6.1D-01
   Bfn.  Coefficient  Atom+Function         Bfn.  Coefficient  Atom+Function  
  ----- ------------  ---------------      ----- ------------  ---------------
    12      1.731736  1 O  dxz               14     -0.033000  1 O  dyz        

 Vector   16  Occ=0.000000D+00  E= 1.779464D+00
              MO Center=  2.8D-03,  1.5D-01,  5.3D-17, r^2= 6.1D-01
   Bfn.  Coefficient  Atom+Function         Bfn.  Coefficient  Atom+Function  
  ----- ------------  ---------------      ----- ------------  ---------------
    14      1.730409  1 O  dyz                9      0.035110  1 O  pz         
    12      0.032975  1 O  dxz        

 Vector   17  Occ=0.000000D+00  E= 2.279885D+00
              MO Center=  8.6D-05,  3.9D-03,  1.7D-16, r^2= 8.3D-01
   Bfn.  Coefficient  Atom+Function         Bfn.  Coefficient  Atom+Function  
  ----- ------------  ---------------      ----- ------------  ---------------
     6      1.540843  1 O  s                 15     -1.133291  1 O  dzz        
    16     -0.812413  2 H  s                 18     -0.812255  3 H  s          
     8     -0.742451  1 O  py                10      0.729482  1 O  dxx        
     2     -0.516261  1 O  s                 17     -0.141941  2 H  s          
    19     -0.142004  3 H  s                 13      0.078731  1 O  dyy        

 Vector   18  Occ=0.000000D+00  E= 2.575558D+00
              MO Center=  1.3D-03,  6.6D-02,  3.8D-16, r^2= 8.6D-01
   Bfn.  Coefficient  Atom+Function         Bfn.  Coefficient  Atom+Function  
  ----- ------------  ---------------      ----- ------------  ---------------
    11      2.201079  1 O  dxy               16     -0.921157  2 H  s          
    18      0.921472  3 H  s                  7     -0.836329  1 O  px         
    17      0.052335  2 H  s                 19     -0.052260  3 H  s          
    10      0.041696  1 O  dxx               13     -0.041802  1 O  dyy        
     3      0.036956  1 O  px         

 Vector   19  Occ=0.000000D+00  E= 3.550989D+00
              MO Center=  2.4D-03,  1.2D-01, -4.0D-16, r^2= 1.0D+00
   Bfn.  Coefficient  Atom+Function         Bfn.  Coefficient  Atom+Function  
  ----- ------------  ---------------      ----- ------------  ---------------
     6      3.687033  1 O  s                 15     -1.578737  1 O  dzz        
    13     -1.548829  1 O  dyy               10     -1.525443  1 O  dxx        
    17     -0.553376  2 H  s                 19     -0.553437  3 H  s          
     1     -0.467836  1 O  s                  8     -0.335165  1 O  py         
     2      0.287293  1 O  s                  4      0.116801  1 O  py         


     ---------------------------------------------
      Total Density - Mulliken Population Analysis
     ---------------------------------------------

    Atom       Charge   Shell Charges
 -----------   ------   -------------------------------------------------------
    1 O    8     8.77   1.99  0.90  2.92  0.98  1.94  0.04
    2 H    1     0.61   0.48  0.14
    3 H    1     0.61   0.48  0.14

     -------------------------------------------
      Total Density - Lowdin Population Analysis
     -------------------------------------------

    Atom       Charge   Shell Charges
 -----------   ------   -------------------------------------------------------
    1 O    8     8.67   1.98  0.72  2.78  0.50  2.13  0.57
    2 H    1     0.66   0.44  0.22
    3 H    1     0.66   0.44  0.22
 Line search: 
     step= 1.00 grad=-1.2D-05 hess= 1.2D-05 energy=    -76.408951 mode=accept  
 new step= 1.00                   predicted energy=    -76.408951

          --------
          Step   1
          --------

                                 NWChem DFT Module
                                 -----------------


                                     cpd03113




  The DFT is already converged 

         Total DFT energy =    -76.408951000974



                         DFT ENERGY GRADIENTS

    atom               coordinates                        gradient
                 x          y          z           x          y          z
   1 O       0.004483   0.231402   0.000000    0.000063   0.001277  -0.000000
   2 H      -1.453276  -0.877655   0.000000    0.000078  -0.000656  -0.000000
   3 H       1.419029  -0.932122  -0.000000   -0.000141  -0.000621   0.000000


  Step       Energy      Delta E   Gmax     Grms     Xrms     Xmax   Walltime
  ---- ---------------- -------- -------- -------- -------- -------- --------
@    1     -76.40895100  2.9D-07  0.00128  0.00052  0.00386  0.00649      3.2
                                                                    


                                 NWChem DFT Module
                                 -----------------


                                     cpd03113



  Caching 1-el integrals 
   Time after variat. SCF:      3.2

     ---------------------------------------------
      Total Density - Mulliken Population Analysis
     ---------------------------------------------

    Atom       Charge   Shell Charges
 -----------   ------   -------------------------------------------------------
    1 O    8     8.77   1.99  0.90  2.92  0.98  1.94  0.04
    2 H    1     0.61   0.48  0.14
    3 H    1     0.61   0.48  0.14
   Time prior to 1st pass:      3.2


         Total DFT energy =      -76.408954505132
      One electron energy =     -122.937962956934
           Coulomb energy =       46.783683893492
    Exchange-Corr. energy =       -9.343399590190
 Nuclear repulsion energy =        9.088724148500

 Numeric. integr. density =       10.000001095784

     Total iterative time =      0.5s



                       DFT Final Molecular Orbital Analysis
                       ------------------------------------

 Vector    1  Occ=2.000000D+00  E=-1.913815D+01
              MO Center=  2.3D-03,  1.2D-01, -3.2D-19, r^2= 1.5D-02
   Bfn.  Coefficient  Atom+Function         Bfn.  Coefficient  Atom+Function  
  ----- ------------  ---------------      ----- ------------  ---------------
     1      0.992860  1 O  s                  2      0.026224  1 O  s          

 Vector    2  Occ=2.000000D+00  E=-9.979289D-01
              MO Center= -1.6D-03, -8.7D-02, -1.5D-16, r^2= 5.1D-01
   Bfn.  Coefficient  Atom+Function         Bfn.  Coefficient  Atom+Function  
  ----- ------------  ---------------      ----- ------------  ---------------
     2      0.469210  1 O  s                  6      0.439474  1 O  s          
     1     -0.209498  1 O  s                 16      0.139159  2 H  s          
    18      0.139172  3 H  s                  4     -0.127687  1 O  py         
     8     -0.060635  1 O  py         

 Vector    3  Occ=2.000000D+00  E=-5.171822D-01
              MO Center= -2.1D-03, -1.1D-01,  1.9D-18, r^2= 7.9D-01
   Bfn.  Coefficient  Atom+Function         Bfn.  Coefficient  Atom+Function  
  ----- ------------  ---------------      ----- ------------  ---------------
     3      0.517359  1 O  px                 7      0.269695  1 O  px         
    16     -0.237447  2 H  s                 18      0.237449  3 H  s          
    17     -0.141930  2 H  s                 19      0.141926  3 H  s          
    11     -0.071435  1 O  dxy        

 Vector    4  Occ=2.000000D+00  E=-3.722191D-01
              MO Center=  3.8D-03,  2.0D-01,  2.6D-16, r^2= 7.0D-01
   Bfn.  Coefficient  Atom+Function         Bfn.  Coefficient  Atom+Function  
  ----- ------------  ---------------      ----- ------------  ---------------
     4      0.551729  1 O  py                 6      0.410439  1 O  s          
     8      0.372090  1 O  py                 2      0.177260  1 O  s          
    16     -0.143724  2 H  s                 18     -0.143718  3 H  s          
    17     -0.114254  2 H  s                 19     -0.114244  3 H  s          
     1     -0.088099  1 O  s                 13     -0.052407  1 O  dyy        

 Vector    5  Occ=2.000000D+00  E=-2.911965D-01
              MO Center=  1.9D-03,  1.0D-01, -1.7D-16, r^2= 6.0D-01
   Bfn.  Coefficient  Atom+Function         Bfn.  Coefficient  Atom+Function  
  ----- ------------  ---------------      ----- ------------  ---------------
     5      0.644577  1 O  pz                 9      0.506049  1 O  pz         
    14     -0.061377  1 O  dyz        

 Vector    6  Occ=0.000000D+00  E= 6.263271D-02
              MO Center= -1.2D-02, -6.2D-01,  1.0D-17, r^2= 2.4D+00
   Bfn.  Coefficient  Atom+Function         Bfn.  Coefficient  Atom+Function  
  ----- ------------  ---------------      ----- ------------  ---------------
     6      1.258042  1 O  s                 17     -0.969220  2 H  s          
    19     -0.969106  3 H  s                  8     -0.477358  1 O  py         
     4     -0.280569  1 O  py                 2      0.119291  1 O  s          
     1     -0.100649  1 O  s                 16     -0.096258  2 H  s          
    18     -0.096233  3 H  s                 15     -0.058051  1 O  dzz        

 Vector    7  Occ=0.000000D+00  E= 1.481625D-01
              MO Center= -1.1D-02, -5.7D-01,  8.0D-18, r^2= 2.5D+00
   Bfn.  Coefficient  Atom+Function         Bfn.  Coefficient  Atom+Function  
  ----- ------------  ---------------      ----- ------------  ---------------
    17      1.277924  2 H  s                 19     -1.278101  3 H  s          
     7      0.758735  1 O  px                 3      0.413345  1 O  px         
    16      0.107312  2 H  s                 18     -0.107310  3 H  s          
    11     -0.031921  1 O  dxy        

 Vector    8  Occ=0.000000D+00  E= 7.725212D-01
              MO Center= -3.1D-03, -1.5D-01,  2.6D-17, r^2= 1.6D+00
   Bfn.  Coefficient  Atom+Function         Bfn.  Coefficient  Atom+Function  
  ----- ------------  ---------------      ----- ------------  ---------------
    16      0.840346  2 H  s                 18     -0.840104  3 H  s          
    17     -0.655103  2 H  s                 19      0.654859  3 H  s          
     7      0.430851  1 O  px                11      0.339290  1 O  dxy        
     3      0.172116  1 O  px         

 Vector    9  Occ=0.000000D+00  E= 8.610360D-01
              MO Center= -3.8D-03, -2.1D-01, -8.3D-16, r^2= 1.3D+00
   Bfn.  Coefficient  Atom+Function         Bfn.  Coefficient  Atom+Function  
  ----- ------------  ---------------      ----- ------------  ---------------
     4      0.708497  1 O  py                16      0.711018  2 H  s          
    18      0.711283  3 H  s                 17     -0.551428  2 H  s          
    19     -0.551526  3 H  s                  8     -0.384189  1 O  py         
    10      0.153703  1 O  dxx                2     -0.134523  1 O  s          
     6      0.133440  1 O  s                 15     -0.118906  1 O  dzz        

 Vector   10  Occ=0.000000D+00  E= 8.907800D-01
              MO Center=  2.3D-03,  1.2D-01,  9.7D-15, r^2= 1.1D+00
   Bfn.  Coefficient  Atom+Function         Bfn.  Coefficient  Atom+Function  
  ----- ------------  ---------------      ----- ------------  ---------------
     9     -1.038622  1 O  pz                 5      0.959436  1 O  pz         
    14      0.028408  1 O  dyz        

 Vector   11  Occ=0.000000D+00  E= 8.951023D-01
              MO Center=  6.1D-03,  3.2D-01, -8.3D-15, r^2= 1.4D+00
   Bfn.  Coefficient  Atom+Function         Bfn.  Coefficient  Atom+Function  
  ----- ------------  ---------------      ----- ------------  ---------------
     6      1.409623  1 O  s                  2     -0.836079  1 O  s          
     8      0.827090  1 O  py                 4     -0.557387  1 O  py         
    16      0.468797  2 H  s                 18      0.468859  3 H  s          
    17     -0.374034  2 H  s                 19     -0.373997  3 H  s          
    15     -0.327590  1 O  dzz               13     -0.276816  1 O  dyy        

 Vector   12  Occ=0.000000D+00  E= 1.065815D+00
              MO Center=  2.0D-03,  1.0D-01,  1.8D-17, r^2= 1.5D+00
   Bfn.  Coefficient  Atom+Function         Bfn.  Coefficient  Atom+Function  
  ----- ------------  ---------------      ----- ------------  ---------------
     7      1.627863  1 O  px                 3     -0.989093  1 O  px         
    17      0.926833  2 H  s                 19     -0.926912  3 H  s          
     8     -0.030873  1 O  py                11      0.027584  1 O  dxy        

 Vector   13  Occ=0.000000D+00  E= 1.193447D+00
              MO Center= -6.9D-03, -3.7D-01, -1.5D-16, r^2= 1.4D+00
   Bfn.  Coefficient  Atom+Function         Bfn.  Coefficient  Atom+Function  
  ----- ------------  ---------------      ----- ------------  ---------------
     6      3.597303  1 O  s                  2     -1.457642  1 O  s          
     8     -1.105373  1 O  py                17     -0.773352  2 H  s          
    19     -0.773468  3 H  s                 10     -0.657446  1 O  dxx        
     4      0.402378  1 O  py                13     -0.393374  1 O  dyy        
    16     -0.352031  2 H  s                 18     -0.352020  3 H  s          

 Vector   14  Occ=0.000000D+00  E= 1.729081D+00
              MO Center=  3.3D-03,  1.7D-01,  9.6D-17, r^2= 6.2D-01
   Bfn.  Coefficient  Atom+Function         Bfn.  Coefficient  Atom+Function  
  ----- ------------  ---------------      ----- ------------  ---------------
    13      1.006389  1 O  dyy               10     -0.595265  1 O  dxx        
    15     -0.343994  1 O  dzz                6     -0.252500  1 O  s          
     8      0.143559  1 O  py                 2      0.090134  1 O  s          
    16      0.081753  2 H  s                 18      0.081751  3 H  s          
    11      0.060816  1 O  dxy               17      0.042279  2 H  s          

 Vector   15  Occ=0.000000D+00  E= 1.746348D+00
              MO Center=  2.3D-03,  1.2D-01, -8.1D-17, r^2= 6.1D-01
   Bfn.  Coefficient  Atom+Function         Bfn.  Coefficient  Atom+Function  
  ----- ------------  ---------------      ----- ------------  ---------------
    12      1.731737  1 O  dxz               14     -0.032955  1 O  dyz        

 Vector   16  Occ=0.000000D+00  E= 1.779792D+00
              MO Center=  2.8D-03,  1.5D-01, -1.3D-16, r^2= 6.1D-01
   Bfn.  Coefficient  Atom+Function         Bfn.  Coefficient  Atom+Function  
  ----- ------------  ---------------      ----- ------------  ---------------
    14      1.730416  1 O  dyz                9      0.035000  1 O  pz         
    12      0.032930  1 O  dxz        

 Vector   17  Occ=0.000000D+00  E= 2.280714D+00
              MO Center=  8.0D-05,  3.3D-03, -1.3D-16, r^2= 8.3D-01
   Bfn.  Coefficient  Atom+Function         Bfn.  Coefficient  Atom+Function  
  ----- ------------  ---------------      ----- ------------  ---------------
     6      1.539211  1 O  s                 15     -1.131174  1 O  dzz        
    16     -0.812596  2 H  s                 18     -0.812484  3 H  s          
     8     -0.739062  1 O  py                10      0.736091  1 O  dxx        
     2     -0.514841  1 O  s                 17     -0.141471  2 H  s          
    19     -0.141515  3 H  s                 13      0.070849  1 O  dyy        

 Vector   18  Occ=0.000000D+00  E= 2.577312D+00
              MO Center=  1.3D-03,  6.4D-02, -1.3D-17, r^2= 8.6D-01
   Bfn.  Coefficient  Atom+Function         Bfn.  Coefficient  Atom+Function  
  ----- ------------  ---------------      ----- ------------  ---------------
    11      2.201978  1 O  dxy               16     -0.923592  2 H  s          
    18      0.923814  3 H  s                  7     -0.842507  1 O  px         
    17      0.050113  2 H  s                 19     -0.050060  3 H  s          
    10      0.041734  1 O  dxx               13     -0.041809  1 O  dyy        
     3      0.036805  1 O  px         

 Vector   19  Occ=0.000000D+00  E= 3.551967D+00
              MO Center=  2.3D-03,  1.2D-01, -6.7D-18, r^2= 1.0D+00
   Bfn.  Coefficient  Atom+Function         Bfn.  Coefficient  Atom+Function  
  ----- ------------  ---------------      ----- ------------  ---------------
     6      3.689795  1 O  s                 15     -1.578755  1 O  dzz        
    13     -1.549684  1 O  dyy               10     -1.526202  1 O  dxx        
    17     -0.554613  2 H  s                 19     -0.554656  3 H  s          
     1     -0.467959  1 O  s                  8     -0.333909  1 O  py         
     2      0.286639  1 O  s                  4      0.116609  1 O  py         


     ---------------------------------------------
      Total Density - Mulliken Population Analysis
     ---------------------------------------------

    Atom       Charge   Shell Charges
 -----------   ------   -------------------------------------------------------
    1 O    8     8.77   1.99  0.90  2.92  0.98  1.94  0.04
    2 H    1     0.61   0.48  0.14
    3 H    1     0.61   0.48  0.14

     -------------------------------------------
      Total Density - Lowdin Population Analysis
     -------------------------------------------

    Atom       Charge   Shell Charges
 -----------   ------   -------------------------------------------------------
    1 O    8     8.67   1.98  0.72  2.78  0.50  2.13  0.57
    2 H    1     0.66   0.44  0.22
    3 H    1     0.66   0.44  0.22
 Line search: 
     step= 1.00 grad=-7.3D-06 hess= 3.8D-06 energy=    -76.408955 mode=accept  
 new step= 1.00                   predicted energy=    -76.408955

          --------
          Step   2
          --------

                                 NWChem DFT Module
                                 -----------------


                                     cpd03113




  The DFT is already converged 

         Total DFT energy =    -76.408954505132



                         DFT ENERGY GRADIENTS

    atom               coordinates                        gradient
                 x          y          z           x          y          z
   1 O       0.004407   0.227905   0.000000    0.000024  -0.000146  -0.000000
   2 H      -1.455800  -0.875854   0.000000    0.000086   0.000060   0.000000
   3 H       1.421629  -0.930425  -0.000000   -0.000111   0.000085   0.000000


  Step       Energy      Delta E   Gmax     Grms     Xrms     Xmax   Walltime
  ---- ---------------- -------- -------- -------- -------- -------- --------
@    2     -76.40895451 -3.5D-06  0.00015  0.00008  0.00187  0.00350      4.5
                                     ok       ok                    


                                 NWChem DFT Module
                                 -----------------


                                     cpd03113



  Caching 1-el integrals 
   Time after variat. SCF:      4.5

     ---------------------------------------------
      Total Density - Mulliken Population Analysis
     ---------------------------------------------

    Atom       Charge   Shell Charges
 -----------   ------   -------------------------------------------------------
    1 O    8     8.77   1.99  0.90  2.92  0.98  1.94  0.04
    2 H    1     0.61   0.48  0.14
    3 H    1     0.61   0.48  0.14
   Time prior to 1st pass:      4.5


         Total DFT energy =      -76.408954525492
      One electron energy =     -122.934642381628
           Coulomb energy =       46.781620914624
    Exchange-Corr. energy =       -9.343157185048
 Nuclear repulsion energy =        9.087224126560

 Numeric. integr. density =       10.000001096785

     Total iterative time =      0.4s



                       DFT Final Molecular Orbital Analysis
                       ------------------------------------

 Vector    1  Occ=2.000000D+00  E=-1.913820D+01
              MO Center=  2.3D-03,  1.2D-01,  4.5D-21, r^2= 1.5D-02
   Bfn.  Coefficient  Atom+Function         Bfn.  Coefficient  Atom+Function  
  ----- ------------  ---------------      ----- ------------  ---------------
     1      0.992860  1 O  s                  2      0.026224  1 O  s          

 Vector    2  Occ=2.000000D+00  E=-9.978646D-01
              MO Center= -1.6D-03, -8.7D-02, -1.6D-16, r^2= 5.1D-01
   Bfn.  Coefficient  Atom+Function         Bfn.  Coefficient  Atom+Function  
  ----- ------------  ---------------      ----- ------------  ---------------
     2      0.469221  1 O  s                  6      0.439549  1 O  s          
     1     -0.209505  1 O  s                 16      0.139132  2 H  s          
    18      0.139125  3 H  s                  4     -0.127649  1 O  py         
     8     -0.060642  1 O  py         

 Vector    3  Occ=2.000000D+00  E=-5.171268D-01
              MO Center= -2.0D-03, -1.1D-01, -3.0D-18, r^2= 7.9D-01
   Bfn.  Coefficient  Atom+Function         Bfn.  Coefficient  Atom+Function  
  ----- ------------  ---------------      ----- ------------  ---------------
     3      0.517342  1 O  px                 7      0.269720  1 O  px         
    16     -0.237433  2 H  s                 18      0.237432  3 H  s          
    17     -0.141957  2 H  s                 19      0.141959  3 H  s          
    11     -0.071428  1 O  dxy        

 Vector    4  Occ=2.000000D+00  E=-3.722158D-01
              MO Center=  3.8D-03,  2.0D-01, -1.7D-16, r^2= 7.0D-01
   Bfn.  Coefficient  Atom+Function         Bfn.  Coefficient  Atom+Function  
  ----- ------------  ---------------      ----- ------------  ---------------
     4      0.551720  1 O  py                 6      0.410405  1 O  s          
     8      0.372081  1 O  py                 2      0.177248  1 O  s          
    16     -0.143734  2 H  s                 18     -0.143737  3 H  s          
    17     -0.114285  2 H  s                 19     -0.114290  3 H  s          
     1     -0.088092  1 O  s                 13     -0.052399  1 O  dyy        

 Vector    5  Occ=2.000000D+00  E=-2.911926D-01
              MO Center=  1.9D-03,  1.0D-01,  4.9D-17, r^2= 6.0D-01
   Bfn.  Coefficient  Atom+Function         Bfn.  Coefficient  Atom+Function  
  ----- ------------  ---------------      ----- ------------  ---------------
     5      0.644584  1 O  pz                 9      0.506041  1 O  pz         
    14     -0.061360  1 O  dyz        

 Vector    6  Occ=0.000000D+00  E= 6.258789D-02
              MO Center= -1.2D-02, -6.2D-01,  5.4D-18, r^2= 2.4D+00
   Bfn.  Coefficient  Atom+Function         Bfn.  Coefficient  Atom+Function  
  ----- ------------  ---------------      ----- ------------  ---------------
     6      1.257695  1 O  s                 17     -0.968965  2 H  s          
    19     -0.969037  3 H  s                  8     -0.477374  1 O  py         
     4     -0.280643  1 O  py                 2      0.119311  1 O  s          
     1     -0.100642  1 O  s                 16     -0.096293  2 H  s          
    18     -0.096308  3 H  s                 15     -0.058034  1 O  dzz        

 Vector    7  Occ=0.000000D+00  E= 1.481036D-01
              MO Center= -1.1D-02, -5.7D-01, -1.0D-18, r^2= 2.5D+00
   Bfn.  Coefficient  Atom+Function         Bfn.  Coefficient  Atom+Function  
  ----- ------------  ---------------      ----- ------------  ---------------
    17      1.277709  2 H  s                 19     -1.277601  3 H  s          
     7      0.758645  1 O  px                 3      0.413400  1 O  px         
    16      0.107367  2 H  s                 18     -0.107368  3 H  s          
    11     -0.031903  1 O  dxy        

 Vector    8  Occ=0.000000D+00  E= 7.724520D-01
              MO Center= -2.7D-03, -1.5D-01,  4.0D-17, r^2= 1.6D+00
   Bfn.  Coefficient  Atom+Function         Bfn.  Coefficient  Atom+Function  
  ----- ------------  ---------------      ----- ------------  ---------------
    16      0.840138  2 H  s                 18     -0.840282  3 H  s          
    17     -0.655381  2 H  s                 19      0.655526  3 H  s          
     7      0.430197  1 O  px                11      0.339299  1 O  dxy        
     3      0.172254  1 O  px         

 Vector    9  Occ=0.000000D+00  E= 8.608754D-01
              MO Center= -4.1D-03, -2.1D-01,  3.1D-16, r^2= 1.3D+00
   Bfn.  Coefficient  Atom+Function         Bfn.  Coefficient  Atom+Function  
  ----- ------------  ---------------      ----- ------------  ---------------
    16      0.712044  2 H  s                 18      0.711885  3 H  s          
     4      0.707427  1 O  py                17     -0.552280  2 H  s          
    19     -0.552220  3 H  s                  8     -0.382804  1 O  py         
    10      0.153403  1 O  dxx                2     -0.135839  1 O  s          
     6      0.135927  1 O  s                 15     -0.119395  1 O  dzz        

 Vector   10  Occ=0.000000D+00  E= 8.907748D-01
              MO Center=  2.2D-03,  1.2D-01,  5.3D-15, r^2= 1.1D+00
   Bfn.  Coefficient  Atom+Function         Bfn.  Coefficient  Atom+Function  
  ----- ------------  ---------------      ----- ------------  ---------------
     9     -1.038626  1 O  pz                 5      0.959431  1 O  pz         
    14      0.028410  1 O  dyz        

 Vector   11  Occ=0.000000D+00  E= 8.950802D-01
              MO Center=  6.2D-03,  3.2D-01, -3.6D-15, r^2= 1.4D+00
   Bfn.  Coefficient  Atom+Function         Bfn.  Coefficient  Atom+Function  
  ----- ------------  ---------------      ----- ------------  ---------------
     6      1.409921  1 O  s                  2     -0.835982  1 O  s          
     8      0.827544  1 O  py                 4     -0.558620  1 O  py         
    16      0.467510  2 H  s                 18      0.467475  3 H  s          
    17     -0.373188  2 H  s                 19     -0.373211  3 H  s          
    15     -0.327400  1 O  dzz               13     -0.276860  1 O  dyy        

 Vector   12  Occ=0.000000D+00  E= 1.065772D+00
              MO Center=  1.9D-03,  1.0D-01,  1.2D-17, r^2= 1.5D+00
   Bfn.  Coefficient  Atom+Function         Bfn.  Coefficient  Atom+Function  
  ----- ------------  ---------------      ----- ------------  ---------------
     7      1.627816  1 O  px                 3     -0.989033  1 O  px         
    17      0.926484  2 H  s                 19     -0.926437  3 H  s          
     8     -0.030888  1 O  py                11      0.027813  1 O  dxy        

 Vector   13  Occ=0.000000D+00  E= 1.193418D+00
              MO Center= -6.9D-03, -3.7D-01, -2.6D-15, r^2= 1.4D+00
   Bfn.  Coefficient  Atom+Function         Bfn.  Coefficient  Atom+Function  
  ----- ------------  ---------------      ----- ------------  ---------------
     6      3.596590  1 O  s                  2     -1.457473  1 O  s          
     8     -1.105382  1 O  py                17     -0.773177  2 H  s          
    19     -0.773108  3 H  s                 10     -0.657422  1 O  dxx        
     4      0.402511  1 O  py                13     -0.393369  1 O  dyy        
    16     -0.352061  2 H  s                 18     -0.352067  3 H  s          

 Vector   14  Occ=0.000000D+00  E= 1.729115D+00
              MO Center=  3.3D-03,  1.7D-01,  1.3D-17, r^2= 6.2D-01
   Bfn.  Coefficient  Atom+Function         Bfn.  Coefficient  Atom+Function  
  ----- ------------  ---------------      ----- ------------  ---------------
    13      1.006387  1 O  dyy               10     -0.595282  1 O  dxx        
    15     -0.343988  1 O  dzz                6     -0.252390  1 O  s          
     8      0.143521  1 O  py                 2      0.090115  1 O  s          
    16      0.081721  2 H  s                 18      0.081723  3 H  s          
    11      0.060781  1 O  dxy               17      0.042256  2 H  s          

 Vector   15  Occ=0.000000D+00  E= 1.746378D+00
              MO Center=  2.3D-03,  1.2D-01, -1.0D-16, r^2= 6.1D-01
   Bfn.  Coefficient  Atom+Function         Bfn.  Coefficient  Atom+Function  
  ----- ------------  ---------------      ----- ------------  ---------------
    12      1.731741  1 O  dxz               14     -0.032783  1 O  dyz        

 Vector   16  Occ=0.000000D+00  E= 1.779812D+00
              MO Center=  2.8D-03,  1.5D-01,  1.7D-17, r^2= 6.1D-01
   Bfn.  Coefficient  Atom+Function         Bfn.  Coefficient  Atom+Function  
  ----- ------------  ---------------      ----- ------------  ---------------
    14      1.730420  1 O  dyz                9      0.034996  1 O  pz         
    12      0.032757  1 O  dxz        

 Vector   17  Occ=0.000000D+00  E= 2.280520D+00
              MO Center=  1.0D-04,  3.4D-03, -2.2D-17, r^2= 8.3D-01
   Bfn.  Coefficient  Atom+Function         Bfn.  Coefficient  Atom+Function  
  ----- ------------  ---------------      ----- ------------  ---------------
     6      1.538564  1 O  s                 15     -1.131097  1 O  dzz        
    16     -0.812200  2 H  s                 18     -0.812266  3 H  s          
     8     -0.738813  1 O  py                10      0.736029  1 O  dxx        
     2     -0.514828  1 O  s                 17     -0.141365  2 H  s          
    19     -0.141339  3 H  s                 13      0.070852  1 O  dyy        

 Vector   18  Occ=0.000000D+00  E= 2.577034D+00
              MO Center=  1.2D-03,  6.4D-02,  5.7D-18, r^2= 8.6D-01
   Bfn.  Coefficient  Atom+Function         Bfn.  Coefficient  Atom+Function  
  ----- ------------  ---------------      ----- ------------  ---------------
    11      2.201650  1 O  dxy               16     -0.923461  2 H  s          
    18      0.923328  3 H  s                  7     -0.842209  1 O  px         
    17      0.050188  2 H  s                 19     -0.050219  3 H  s          
    10      0.041817  1 O  dxx               13     -0.041772  1 O  dyy        
     3      0.036980  1 O  px         

 Vector   19  Occ=0.000000D+00  E= 3.551879D+00
              MO Center=  2.3D-03,  1.2D-01, -8.5D-18, r^2= 1.0D+00
   Bfn.  Coefficient  Atom+Function         Bfn.  Coefficient  Atom+Function  
  ----- ------------  ---------------      ----- ------------  ---------------
     6      3.689421  1 O  s                 15     -1.578740  1 O  dzz        
    13     -1.549612  1 O  dyy               10     -1.526097  1 O  dxx        
    17     -0.554516  2 H  s                 19     -0.554490  3 H  s          
     1     -0.467943  1 O  s                  8     -0.333898  1 O  py         
     2      0.286728  1 O  s                  4      0.116576  1 O  py         


     ---------------------------------------------
      Total Density - Mulliken Population Analysis
     ---------------------------------------------

    Atom       Charge   Shell Charges
 -----------   ------   -------------------------------------------------------
    1 O    8     8.77   1.99  0.90  2.92  0.98  1.94  0.04
    2 H    1     0.61   0.48  0.14
    3 H    1     0.61   0.48  0.14

     -------------------------------------------
      Total Density - Lowdin Population Analysis
     -------------------------------------------

    Atom       Charge   Shell Charges
 -----------   ------   -------------------------------------------------------
    1 O    8     8.67   1.98  0.72  2.78  0.50  2.13  0.57
    2 H    1     0.66   0.44  0.22
    3 H    1     0.66   0.44  0.22
 Line search: 
     step= 1.00 grad=-7.6D-08 hess= 5.6D-08 energy=    -76.408955 mode=accept  
 new step= 1.00                   predicted energy=    -76.408955

          --------
          Step   3
          --------

                                 NWChem DFT Module
                                 -----------------


                                     cpd03113




  The DFT is already converged 

         Total DFT energy =    -76.408954525492



                         DFT ENERGY GRADIENTS

    atom               coordinates                        gradient
                 x          y          z           x          y          z
   1 O       0.004373   0.228028   0.000000   -0.000016   0.000035  -0.000000
   2 H      -1.456022  -0.875897   0.000000   -0.000022  -0.000011   0.000000
   3 H       1.421886  -0.930506  -0.000000    0.000039  -0.000025   0.000000


  Step       Energy      Delta E   Gmax     Grms     Xrms     Xmax   Walltime
  ---- ---------------- -------- -------- -------- -------- -------- --------
@    3     -76.40895453 -2.0D-08  0.00004  0.00002  0.00012  0.00026      5.7
                                     ok       ok       ok       ok  


      ----------------------
      Optimization converged
      ----------------------


  Step       Energy      Delta E   Gmax     Grms     Xrms     Xmax   Walltime
  ---- ---------------- -------- -------- -------- -------- -------- --------
@    3     -76.40895453 -2.0D-08  0.00004  0.00002  0.00012  0.00026      5.7
                                     ok       ok       ok       ok  



                         Geometry "geometry" -> "geometry"
                         ---------------------------------

 Output coordinates in angstroms (scale by  1.889725989 to convert to a.u.)

  No.       Tag          Charge          X              Y              Z
 ---- ---------------- ---------- -------------- -------------- --------------
    1 O                    8.0000     0.00231385     0.12066707     0.00000000
    2 H                    1.0000    -0.77049377    -0.46350452     0.00000000
    3 H                    1.0000     0.75242991    -0.49240255    -0.00000000

      Atomic Mass 
      ----------- 

      O                 15.994910
      H                  1.007825


 Effective nuclear repulsion energy (a.u.)       9.0872241266

            Nuclear Dipole moment (a.u.) 
            ----------------------------
        X                 Y               Z
 ---------------- ---------------- ----------------
     0.0008446489     0.0178191680     0.0000000000



                                NWChem Input Module
                                -------------------


                              NWChem Property Module
                              ----------------------


                                 NWChem DFT Module
                                 -----------------


                                     cpd03113



  Caching 1-el integrals 
   Time after variat. SCF:      5.8

     ---------------------------------------------
      Total Density - Mulliken Population Analysis
     ---------------------------------------------

    Atom       Charge   Shell Charges
 -----------   ------   -------------------------------------------------------
    1 O    8     8.77   1.99  0.90  2.92  0.98  1.94  0.04
    2 H    1     0.61   0.48  0.14
    3 H    1     0.61   0.48  0.14
   Time prior to 1st pass:      5.9


         Total DFT energy =      -76.408953971385
      One electron energy =     -122.935035549433
           Coulomb energy =       46.782068632305
    Exchange-Corr. energy =       -9.343211180817
 Nuclear repulsion energy =        9.087224126560

 Numeric. integr. density =       10.000000399790

     Total iterative time =      0.7s



                       DFT Final Molecular Orbital Analysis
                       ------------------------------------

 Vector    1  Occ=2.000000D+00  E=-1.913818D+01
              MO Center=  2.3D-03,  1.2D-01, -1.0D-18, r^2= 1.5D-02
   Bfn.  Coefficient  Atom+Function         Bfn.  Coefficient  Atom+Function  
  ----- ------------  ---------------      ----- ------------  ---------------
     1      0.992860  1 O  s                  2      0.026224  1 O  s          

 Vector    2  Occ=2.000000D+00  E=-9.978606D-01
              MO Center= -1.6D-03, -8.7D-02, -3.3D-15, r^2= 5.1D-01
   Bfn.  Coefficient  Atom+Function         Bfn.  Coefficient  Atom+Function  
  ----- ------------  ---------------      ----- ------------  ---------------
     2      0.469216  1 O  s                  6      0.439548  1 O  s          
     1     -0.209504  1 O  s                 16      0.139133  2 H  s          
    18      0.139126  3 H  s                  4     -0.127652  1 O  py         
     8     -0.060645  1 O  py         

 Vector    3  Occ=2.000000D+00  E=-5.171238D-01
              MO Center= -2.0D-03, -1.1D-01, -4.1D-16, r^2= 7.9D-01
   Bfn.  Coefficient  Atom+Function         Bfn.  Coefficient  Atom+Function  
  ----- ------------  ---------------      ----- ------------  ---------------
     3      0.517336  1 O  px                 7      0.269720  1 O  px         
    16     -0.237435  2 H  s                 18      0.237434  3 H  s          
    17     -0.141961  2 H  s                 19      0.141963  3 H  s          
    11     -0.071429  1 O  dxy        

 Vector    4  Occ=2.000000D+00  E=-3.722080D-01
              MO Center=  3.8D-03,  2.0D-01, -1.1D-14, r^2= 7.0D-01
   Bfn.  Coefficient  Atom+Function         Bfn.  Coefficient  Atom+Function  
  ----- ------------  ---------------      ----- ------------  ---------------
     4      0.551712  1 O  py                 6      0.410416  1 O  s          
     8      0.372081  1 O  py                 2      0.177251  1 O  s          
    16     -0.143735  2 H  s                 18     -0.143738  3 H  s          
    17     -0.114290  2 H  s                 19     -0.114296  3 H  s          
     1     -0.088094  1 O  s                 13     -0.052400  1 O  dyy        

 Vector    5  Occ=2.000000D+00  E=-2.911856D-01
              MO Center=  1.9D-03,  1.0D-01,  6.0D-15, r^2= 6.0D-01
   Bfn.  Coefficient  Atom+Function         Bfn.  Coefficient  Atom+Function  
  ----- ------------  ---------------      ----- ------------  ---------------
     5      0.644581  1 O  pz                 9      0.506045  1 O  pz         
    14     -0.061362  1 O  dyz        

 Vector    6  Occ=0.000000D+00  E= 6.258762D-02
              MO Center= -1.2D-02, -6.2D-01, -2.6D-15, r^2= 2.4D+00
   Bfn.  Coefficient  Atom+Function         Bfn.  Coefficient  Atom+Function  
  ----- ------------  ---------------      ----- ------------  ---------------
     6      1.257696  1 O  s                 17     -0.968967  2 H  s          
    19     -0.969036  3 H  s                  8     -0.477379  1 O  py         
     4     -0.280646  1 O  py                 2      0.119308  1 O  s          
     1     -0.100642  1 O  s                 16     -0.096292  2 H  s          
    18     -0.096307  3 H  s                 15     -0.058035  1 O  dzz        

 Vector    7  Occ=0.000000D+00  E= 1.481045D-01
              MO Center= -1.1D-02, -5.7D-01, -2.4D-17, r^2= 2.5D+00
   Bfn.  Coefficient  Atom+Function         Bfn.  Coefficient  Atom+Function  
  ----- ------------  ---------------      ----- ------------  ---------------
    17      1.277712  2 H  s                 19     -1.277606  3 H  s          
     7      0.758652  1 O  px                 3      0.413399  1 O  px         
    16      0.107365  2 H  s                 18     -0.107366  3 H  s          
    11     -0.031905  1 O  dxy        

 Vector    8  Occ=0.000000D+00  E= 7.724511D-01
              MO Center= -2.7D-03, -1.5D-01, -5.8D-16, r^2= 1.6D+00
   Bfn.  Coefficient  Atom+Function         Bfn.  Coefficient  Atom+Function  
  ----- ------------  ---------------      ----- ------------  ---------------
    16      0.840138  2 H  s                 18     -0.840284  3 H  s          
    17     -0.655377  2 H  s                 19      0.655523  3 H  s          
     7      0.430203  1 O  px                11      0.339296  1 O  dxy        
     3      0.172254  1 O  px         

 Vector    9  Occ=0.000000D+00  E= 8.608770D-01
              MO Center= -4.1D-03, -2.1D-01, -1.0D-13, r^2= 1.3D+00
   Bfn.  Coefficient  Atom+Function         Bfn.  Coefficient  Atom+Function  
  ----- ------------  ---------------      ----- ------------  ---------------
    16      0.712100  2 H  s                 18      0.711941  3 H  s          
     4      0.707363  1 O  py                17     -0.552320  2 H  s          
    19     -0.552261  3 H  s                  8     -0.382702  1 O  py         
    10      0.153386  1 O  dxx                2     -0.135932  1 O  s          
     6      0.136080  1 O  s                 15     -0.119430  1 O  dzz        

 Vector   10  Occ=0.000000D+00  E= 8.907808D-01
              MO Center=  2.2D-03,  1.2D-01, -7.7D-13, r^2= 1.1D+00
   Bfn.  Coefficient  Atom+Function         Bfn.  Coefficient  Atom+Function  
  ----- ------------  ---------------      ----- ------------  ---------------
     9     -1.038624  1 O  pz                 5      0.959433  1 O  pz         
    14      0.028408  1 O  dyz        

 Vector   11  Occ=0.000000D+00  E= 8.950843D-01
              MO Center=  6.2D-03,  3.2D-01,  8.5D-13, r^2= 1.4D+00
   Bfn.  Coefficient  Atom+Function         Bfn.  Coefficient  Atom+Function  
  ----- ------------  ---------------      ----- ------------  ---------------
     6      1.409905  1 O  s                  2     -0.835965  1 O  s          
     8      0.827589  1 O  py                 4     -0.558704  1 O  py         
    16      0.467429  2 H  s                 18      0.467393  3 H  s          
    17     -0.373124  2 H  s                 19     -0.373146  3 H  s          
    15     -0.327386  1 O  dzz               13     -0.276863  1 O  dyy        

 Vector   12  Occ=0.000000D+00  E= 1.065777D+00
              MO Center=  1.9D-03,  1.0D-01, -9.8D-16, r^2= 1.5D+00
   Bfn.  Coefficient  Atom+Function         Bfn.  Coefficient  Atom+Function  
  ----- ------------  ---------------      ----- ------------  ---------------
     7      1.627811  1 O  px                 3     -0.989036  1 O  px         
    17      0.926481  2 H  s                 19     -0.926434  3 H  s          
     8     -0.030889  1 O  py                11      0.027813  1 O  dxy        

 Vector   13  Occ=0.000000D+00  E= 1.193420D+00
              MO Center= -6.9D-03, -3.7D-01,  2.3D-14, r^2= 1.4D+00
   Bfn.  Coefficient  Atom+Function         Bfn.  Coefficient  Atom+Function  
  ----- ------------  ---------------      ----- ------------  ---------------
     6      3.596594  1 O  s                  2     -1.457475  1 O  s          
     8     -1.105383  1 O  py                17     -0.773178  2 H  s          
    19     -0.773108  3 H  s                 10     -0.657422  1 O  dxx        
     4      0.402514  1 O  py                13     -0.393369  1 O  dyy        
    16     -0.352060  2 H  s                 18     -0.352066  3 H  s          

 Vector   14  Occ=0.000000D+00  E= 1.729118D+00
              MO Center=  3.3D-03,  1.7D-01,  4.2D-16, r^2= 6.2D-01
   Bfn.  Coefficient  Atom+Function         Bfn.  Coefficient  Atom+Function  
  ----- ------------  ---------------      ----- ------------  ---------------
    13      1.006387  1 O  dyy               10     -0.595282  1 O  dxx        
    15     -0.343986  1 O  dzz                6     -0.252394  1 O  s          
     8      0.143524  1 O  py                 2      0.090116  1 O  s          
    16      0.081723  2 H  s                 18      0.081724  3 H  s          
    11      0.060781  1 O  dxy               17      0.042257  2 H  s          

 Vector   15  Occ=0.000000D+00  E= 1.746382D+00
              MO Center=  2.3D-03,  1.2D-01,  1.8D-15, r^2= 6.1D-01
   Bfn.  Coefficient  Atom+Function         Bfn.  Coefficient  Atom+Function  
  ----- ------------  ---------------      ----- ------------  ---------------
    12      1.731740  1 O  dxz               14     -0.032793  1 O  dyz        

 Vector   16  Occ=0.000000D+00  E= 1.779817D+00
              MO Center=  2.8D-03,  1.5D-01,  7.1D-16, r^2= 6.1D-01
   Bfn.  Coefficient  Atom+Function         Bfn.  Coefficient  Atom+Function  
  ----- ------------  ---------------      ----- ------------  ---------------
    14      1.730420  1 O  dyz                9      0.034996  1 O  pz         
    12      0.032768  1 O  dxz        

 Vector   17  Occ=0.000000D+00  E= 2.280523D+00
              MO Center=  1.0D-04,  3.4D-03,  1.4D-15, r^2= 8.3D-01
   Bfn.  Coefficient  Atom+Function         Bfn.  Coefficient  Atom+Function  
  ----- ------------  ---------------      ----- ------------  ---------------
     6      1.538557  1 O  s                 15     -1.131096  1 O  dzz        
    16     -0.812198  2 H  s                 18     -0.812264  3 H  s          
     8     -0.738810  1 O  py                10      0.736030  1 O  dxx        
     2     -0.514828  1 O  s                 17     -0.141365  2 H  s          
    19     -0.141338  3 H  s                 13      0.070854  1 O  dyy        

 Vector   18  Occ=0.000000D+00  E= 2.577037D+00
              MO Center=  1.2D-03,  6.4D-02,  1.3D-16, r^2= 8.6D-01
   Bfn.  Coefficient  Atom+Function         Bfn.  Coefficient  Atom+Function  
  ----- ------------  ---------------      ----- ------------  ---------------
    11      2.201650  1 O  dxy               16     -0.923460  2 H  s          
    18      0.923327  3 H  s                  7     -0.842208  1 O  px         
    17      0.050187  2 H  s                 19     -0.050219  3 H  s          
    10      0.041817  1 O  dxx               13     -0.041772  1 O  dyy        
     3      0.036981  1 O  px         

 Vector   19  Occ=0.000000D+00  E= 3.551887D+00
              MO Center=  2.3D-03,  1.2D-01,  6.6D-16, r^2= 1.0D+00
   Bfn.  Coefficient  Atom+Function         Bfn.  Coefficient  Atom+Function  
  ----- ------------  ---------------      ----- ------------  ---------------
     6      3.689418  1 O  s                 15     -1.578741  1 O  dzz        
    13     -1.549611  1 O  dyy               10     -1.526096  1 O  dxx        
    17     -0.554515  2 H  s                 19     -0.554490  3 H  s          
     1     -0.467944  1 O  s                  8     -0.333899  1 O  py         
     2      0.286730  1 O  s                  4      0.116577  1 O  py         


     ---------------------------------------------
      Total Density - Mulliken Population Analysis
     ---------------------------------------------

    Atom       Charge   Shell Charges
 -----------   ------   -------------------------------------------------------
    1 O    8     8.77   1.99  0.90  2.92  0.98  1.94  0.04
    2 H    1     0.61   0.48  0.14
    3 H    1     0.61   0.48  0.14

     -------------------------------------------
      Total Density - Lowdin Population Analysis
     -------------------------------------------

    Atom       Charge   Shell Charges
 -----------   ------   -------------------------------------------------------
    1 O    8     8.67   1.98  0.72  2.78  0.50  2.13  0.57
    2 H    1     0.66   0.44  0.22
    3 H    1     0.66   0.44  0.22

          -------------
          Dipole Moment
          -------------

 Center of charge (in au) is the expansion point
         X =       0.0000845 Y =       0.0017819 Z =       0.0000000

   Dipole moment        0.8243642970 A.U.
             DMX       -0.0156297310 DMXEFC        0.0000000000
             DMY       -0.8242161159 DMYEFC        0.0000000000
             DMZ        0.0000000000 DMZEFC        0.0000000000
   -EFC- dipole         0.0000000000 A.U.
   Total dipole         0.8243642970 A.U.

   Dipole moment        2.0953408779 Debye(s)
             DMX       -0.0397271138 DMXEFC        0.0000000000
             DMY       -2.0949642362 DMYEFC        0.0000000000
             DMZ        0.0000000000 DMZEFC        0.0000000000
   -EFC- dipole         0.0000000000 DEBYE(S)
   Total dipole         2.0953408779 DEBYE(S)

 1 a.u. = 2.541766 Debyes 


                                NWChem Input Module
                                -------------------




                                     CITATION
                                     --------
                Please cite the following reference when publishing
                           results obtained with NWChem:

                 M. Valiev, E.J. Bylaska, N. Govind, K. Kowalski,
              T.P. Straatsma, H.J.J. van Dam, D. Wang, J. Nieplocha,
                        E. Apra, T.L. Windus, W.A. de Jong
                 "NWChem: a comprehensive and scalable open-source
                  solution for large scale molecular simulations"
                      Comput. Phys. Commun. 181, 1477 (2010)
                           doi:10.1016/j.cpc.2010.04.018

                                      AUTHORS
                                      -------
          E. Apra, E. J. Bylaska, W. A. de Jong, N. Govind, K. Kowalski,
       T. P. Straatsma, M. Valiev, H. J. J. van Dam, D. Wang, T. L. Windus,
        J. Hammond, J. Autschbach, K. Bhaskaran-Nair, J. Brabec, K. Lopata,
    S. A. Fischer, S. Krishnamoorthy, M. Jacquelin, W. Ma, M. Klemm, O. Villa,
      Y. Chen, V. Anisimov, F. Aquino, S. Hirata, M. T. Hackler, V. Konjkov,
            D. Mejia-Rodriguez, T. Risthaus, M. Malagoli, A. Marenich,
   A. Otero-de-la-Roza, J. Mullin, P. Nichols, R. Peverati, J. Pittner, Y. Zhao,
        P.-D. Fan, A. Fonari, M. J. Williamson, R. J. Harrison, J. R. Rehr,
      M. Dupuis, D. Silverstein, D. M. A. Smith, J. Nieplocha, V. Tipparaju,
    M. Krishnan, B. E. Van Kuiken, A. Vazquez-Mayagoitia, L. Jensen, M. Swart,
      Q. Wu, T. Van Voorhis, A. A. Auer, M. Nooijen, L. D. Crosby, E. Brown,
      G. Cisneros, G. I. Fann, H. Fruchtl, J. Garza, K. Hirao, R. A. Kendall,
      J. A. Nichols, K. Tsemekhman, K. Wolinski, J. Anchell, D. E. Bernholdt,
      P. Borowski, T. Clark, D. Clerc, H. Dachsel, M. J. O. Deegan, K. Dyall,
    D. Elwood, E. Glendening, M. Gutowski, A. C. Hess, J. Jaffe, B. G. Johnson,
     J. Ju, R. Kobayashi, R. Kutteh, Z. Lin, R. Littlefield, X. Long, B. Meng,
      T. Nakajima, S. Niu, L. Pollack, M. Rosing, K. Glaesemann, G. Sandrone,
      M. Stave, H. Taylor, G. Thomas, J. H. van Lenthe, A. T. Wong, Z. Zhang.

 Total times  cpu:        3.3s     wall:        7.2s
