--------------------------------------------------------------------------
[[4828,1],0]: A high-performance Open MPI point-to-point messaging module
was unable to find any relevant network interfaces:

Module: OpenFabrics (openib)
  Host: 2274251cca31

Another transport will be used instead, although this may result in
lower performance.
--------------------------------------------------------------------------
 argument  1 = cpd00939.nw



============================== echo of input deck ==============================
title "cpd00939"
start cpd00939

memory global 1600 mb heap 100 mb stack 600 mb

permanent_dir /kb/module/work/tmp/simulation/cpd00939/dft
#scratch_dir /scratch

echo
print low

charge 0
geometry noautoz noautosym
load /kb/module/work/tmp/simulation/cpd00939/dft/cpd00939.xyz
end
basis
* library 6-31G*
end

driver
 maxiter 50
xyz cpd00939_geom
end

set lindep:n_dep 0

dft
  maxiter 100
  xc b3lyp
  mulliken
  print "mulliken ao"
  print "final vectors analysis"
end

task dft optimize ignore
property
 dipole
end

task dft property
================================================================================


                                         
                                         


              Northwest Computational Chemistry Package (NWChem) 6.8
              ------------------------------------------------------


                    Environmental Molecular Sciences Laboratory
                       Pacific Northwest National Laboratory
                                Richland, WA 99352

                              Copyright (c) 1994-2017
                       Pacific Northwest National Laboratory
                            Battelle Memorial Institute

             NWChem is an open-source computational chemistry package
                        distributed under the terms of the
                      Educational Community License (ECL) 2.0
             A copy of the license is included with this distribution
                              in the LICENSE.TXT file

                                  ACKNOWLEDGMENT
                                  --------------

            This software and its documentation were developed at the
            EMSL at Pacific Northwest National Laboratory, a multiprogram
            national laboratory, operated for the U.S. Department of Energy
            by Battelle under Contract Number DE-AC05-76RL01830. Support
            for this work was provided by the Department of Energy Office
            of Biological and Environmental Research, Office of Basic
            Energy Sciences, and the Office of Advanced Scientific Computing.


           Job information
           ---------------

    hostname        = 2274251cca31
    program         = nwchem
    date            = Sun Mar  8 23:29:02 2020

    compiled        = Sat_Mar_07_21:45:49_2020
    source          = /codes/nwchem-6.8.1
    nwchem branch   = 6.8.1
    nwchem revision = v6.8-133-ge032219
    ga revision     = 5.6.5
    use scalapack   = F
    input           = cpd00939.nw
    prefix          = cpd00939.
    data base       = /kb/module/work/tmp/simulation/cpd00939/dft/cpd00939.db
    status          = startup
    nproc           =        2
    time left       =     -1s



           Memory information
           ------------------

    heap     =   13107194 doubles =    100.0 Mbytes
    stack    =   78643199 doubles =    600.0 Mbytes
    global   =  209715200 doubles =   1600.0 Mbytes (distinct from heap & stack)
    total    =  301465593 doubles =   2300.0 Mbytes
    verify   = yes
    hardfail = no 


           Directory information
           ---------------------

  0 permanent = /kb/module/work/tmp/simulation/cpd00939/dft
  0 scratch   = .




                                NWChem Input Module
                                -------------------


                                     cpd00939
                                     --------

 Scaling coordinates for geometry "geometry" by  1.889725989
 (inverse scale =  0.529177249)



                             Geometry "geometry" -> ""
                             -------------------------

 Output coordinates in angstroms (scale by  1.889725989 to convert to a.u.)

  No.       Tag          Charge          X              Y              Z
 ---- ---------------- ---------- -------------- -------------- --------------
    1 N                    7.0000     0.00187000    -0.00060000     0.11824000
    2 H                    1.0000    -0.54033000    -0.77050000    -0.27126000
    3 H                    1.0000    -0.40473000     0.85150000    -0.26536000
    4 H                    1.0000     0.93197000    -0.07680000    -0.29106000

      Atomic Mass 
      ----------- 

      N                 14.003070
      H                  1.007825


 Effective nuclear repulsion energy (a.u.)      11.8803081852

            Nuclear Dipole moment (a.u.) 
            ----------------------------
        X                 Y               Z
 ---------------- ---------------- ----------------
    -0.0000000000    -0.0000000000     0.0000000000


            XYZ format geometry
            -------------------
     4
 geometry
 N                     0.00187000    -0.00060000     0.11824000
 H                    -0.54033000    -0.77050000    -0.27126000
 H                    -0.40473000     0.85150000    -0.26536000
 H                     0.93197000    -0.07680000    -0.29106000

 ==============================================================================
                                internuclear distances
 ------------------------------------------------------------------------------
       center one      |      center two      | atomic units |  angstroms
 ------------------------------------------------------------------------------
    2 H                |   1 N                |     1.92570  |     1.01904
    3 H                |   1 N                |     1.92580  |     1.01909
    4 H                |   1 N                |     1.92568  |     1.01903
 ------------------------------------------------------------------------------
                         number of included internuclear distances:          3
 ==============================================================================



 ==============================================================================
                                 internuclear angles
 ------------------------------------------------------------------------------
        center 1       |       center 2       |       center 3       |  degrees
 ------------------------------------------------------------------------------
    2 H                |   1 N                |   3 H                |   106.00
    2 H                |   1 N                |   4 H                |   106.00
    3 H                |   1 N                |   4 H                |   105.99
 ------------------------------------------------------------------------------
                            number of included internuclear angles:          3
 ==============================================================================



  library name resolved from: environment
  library file name is: </codes/nwchem-6.8.1/data/libraries/>
  


 Summary of "ao basis" -> "" (cartesian)
 ------------------------------------------------------------------------------
       Tag                 Description            Shells   Functions and Types
 ---------------- ------------------------------  ------  ---------------------
 *                           6-31G*                   on all atoms 




                           NWChem Geometry Optimization
                           ----------------------------




                                     cpd00939


 maximum gradient threshold         (gmax) =   0.000450
 rms gradient threshold             (grms) =   0.000300
 maximum cartesian step threshold   (xmax) =   0.001800
 rms cartesian step threshold       (xrms) =   0.001200
 fixed trust radius                (trust) =   0.300000
 maximum step size to saddle      (sadstp) =   0.100000
 energy precision                  (eprec) =   5.0D-06
 maximum number of steps          (nptopt) =   50
 initial hessian option           (inhess) =    0
 line search option               (linopt) =    1
 hessian update option            (modupd) =    1
 saddle point option              (modsad) =    0
 initial eigen-mode to follow     (moddir) =    0
 initial variable to follow       (vardir) =    0
 follow first negative mode     (firstneg) =    T
 apply conjugacy                    (opcg) =    F
 source of zmatrix                         =           


          -------------------
          Energy Minimization
          -------------------


 Using diagonal initial Hessian 

          --------
          Step   0
          --------

                                 NWChem DFT Module
                                 -----------------


                                     cpd00939


                      Basis "ao basis" -> "ao basis" (cartesian)
                      -----
  N (Nitrogen)
  ------------
            Exponent  Coefficients 
       -------------- ---------------------------------------------------------
  1 S  4.17351100E+03  0.001835
  1 S  6.27457900E+02  0.013995
  1 S  1.42902100E+02  0.068587
  1 S  4.02343300E+01  0.232241
  1 S  1.28202100E+01  0.469070
  1 S  4.39043700E+00  0.360455

  2 S  1.16263580E+01 -0.114961
  2 S  2.71628000E+00 -0.169118
  2 S  7.72218000E-01  1.145852

  3 P  1.16263580E+01  0.067580
  3 P  2.71628000E+00  0.323907
  3 P  7.72218000E-01  0.740895

  4 S  2.12031300E-01  1.000000

  5 P  2.12031300E-01  1.000000

  6 D  8.00000000E-01  1.000000

  H (Hydrogen)
  ------------
            Exponent  Coefficients 
       -------------- ---------------------------------------------------------
  1 S  1.87311370E+01  0.033495
  1 S  2.82539370E+00  0.234727
  1 S  6.40121700E-01  0.813757

  2 S  1.61277800E-01  1.000000



 Summary of "ao basis" -> "ao basis" (cartesian)
 ------------------------------------------------------------------------------
       Tag                 Description            Shells   Functions and Types
 ---------------- ------------------------------  ------  ---------------------
 N                           6-31G*                  6       15   3s2p1d
 H                           6-31G*                  2        2   2s



  Caching 1-el integrals 
   Time after variat. SCF:      0.4

     ---------------------------------------------
      Total Density - Mulliken Population Analysis
     ---------------------------------------------

    Atom       Charge   Shell Charges
 -----------   ------   -------------------------------------------------------
    1 N    7     8.23   2.00  0.83  2.62  0.86  1.88  0.04
    2 H    1     0.59   0.42  0.17
    3 H    1     0.59   0.42  0.17
    4 H    1     0.59   0.42  0.17
   Time prior to 1st pass:      0.4


         Total DFT energy =      -56.547945325109
      One electron energy =      -99.571609783300
           Coulomb energy =       39.173534852887
    Exchange-Corr. energy =       -8.030178579857
 Nuclear repulsion energy =       11.880308185161

 Numeric. integr. density =        9.999999362758

     Total iterative time =      0.9s



                       DFT Final Molecular Orbital Analysis
                       ------------------------------------

 Vector    1  Occ=2.000000D+00  E=-1.430569D+01
              MO Center=  1.9D-03, -6.0D-04,  1.2D-01, r^2= 2.0D-02
   Bfn.  Coefficient  Atom+Function         Bfn.  Coefficient  Atom+Function  
  ----- ------------  ---------------      ----- ------------  ---------------
     1      0.992707  1 N  s                  2      0.034641  1 N  s          

 Vector    2  Occ=2.000000D+00  E=-8.449620D-01
              MO Center= -1.5D-03,  4.4D-04, -9.3D-02, r^2= 7.0D-01
   Bfn.  Coefficient  Atom+Function         Bfn.  Coefficient  Atom+Function  
  ----- ------------  ---------------      ----- ------------  ---------------
     6      0.426383  1 N  s                  2      0.415377  1 N  s          
     1     -0.198825  1 N  s                 16      0.140032  2 H  s          
    18      0.140017  3 H  s                 20      0.140036  4 H  s          
     5     -0.115982  1 N  pz                 9     -0.058344  1 N  pz         

 Vector    3  Occ=2.000000D+00  E=-4.525865D-01
              MO Center=  4.0D-02, -1.9D-01, -6.1D-02, r^2= 9.8D-01
   Bfn.  Coefficient  Atom+Function         Bfn.  Coefficient  Atom+Function  
  ----- ------------  ---------------      ----- ------------  ---------------
     3      0.409004  1 N  px                16     -0.256980  2 H  s          
     4      0.254828  1 N  py                20      0.224349  4 H  s          
     7      0.209923  1 N  px                17     -0.178982  2 H  s          
    21      0.156256  4 H  s                  8      0.130793  1 N  py         
    12     -0.052196  1 N  dxz               18      0.032634  3 H  s          

 Vector    4  Occ=2.000000D+00  E=-4.525609D-01
              MO Center= -4.1D-02,  1.9D-01, -5.8D-02, r^2= 9.8D-01
   Bfn.  Coefficient  Atom+Function         Bfn.  Coefficient  Atom+Function  
  ----- ------------  ---------------      ----- ------------  ---------------
     4      0.409024  1 N  py                18      0.277894  3 H  s          
     3     -0.254768  1 N  px                 8      0.209949  1 N  py         
    19      0.193573  3 H  s                 20     -0.167201  4 H  s          
     7     -0.130769  1 N  px                21     -0.116462  4 H  s          
    16     -0.110679  2 H  s                 17     -0.077092  2 H  s          

 Vector    5  Occ=2.000000D+00  E=-2.517068D-01
              MO Center=  4.6D-03, -1.5D-03,  2.9D-01, r^2= 8.2D-01
   Bfn.  Coefficient  Atom+Function         Bfn.  Coefficient  Atom+Function  
  ----- ------------  ---------------      ----- ------------  ---------------
     5      0.553424  1 N  pz                 9      0.466247  1 N  pz         
     6      0.339668  1 N  s                  2      0.164077  1 N  s          
     1     -0.075762  1 N  s                 17     -0.066283  2 H  s          
    19     -0.066283  3 H  s                 21     -0.066278  4 H  s          
    16     -0.065326  2 H  s                 18     -0.065321  3 H  s          

 Vector    6  Occ=0.000000D+00  E= 7.881251D-02
              MO Center= -6.0D-03,  2.0D-03, -3.8D-01, r^2= 3.1D+00
   Bfn.  Coefficient  Atom+Function         Bfn.  Coefficient  Atom+Function  
  ----- ------------  ---------------      ----- ------------  ---------------
     6      1.813969  1 N  s                 17     -0.920271  2 H  s          
    19     -0.920361  3 H  s                 21     -0.920245  4 H  s          
     9     -0.473624  1 N  pz                 5     -0.198303  1 N  pz         
     2      0.168924  1 N  s                  1     -0.127501  1 N  s          
    16     -0.056867  2 H  s                 18     -0.056882  3 H  s          

 Vector    7  Occ=0.000000D+00  E= 1.680346D-01
              MO Center= -2.6D-01,  4.7D-01, -3.2D-01, r^2= 2.6D+00
   Bfn.  Coefficient  Atom+Function         Bfn.  Coefficient  Atom+Function  
  ----- ------------  ---------------      ----- ------------  ---------------
    19      1.633145  3 H  s                  8     -0.925124  1 N  py         
    17     -0.854337  2 H  s                 21     -0.779131  4 H  s          
     7      0.406030  1 N  px                 4     -0.382964  1 N  py         
     3      0.168083  1 N  px                18      0.105038  3 H  s          
    16     -0.054933  2 H  s                 20     -0.050103  4 H  s          

 Vector    8  Occ=0.000000D+00  E= 1.680500D-01
              MO Center=  2.5D-01, -4.6D-01, -3.4D-01, r^2= 2.6D+00
   Bfn.  Coefficient  Atom+Function         Bfn.  Coefficient  Atom+Function  
  ----- ------------  ---------------      ----- ------------  ---------------
    21     -1.436283  4 H  s                 17      1.392814  2 H  s          
     7      0.925107  1 N  px                 8      0.406188  1 N  py         
     3      0.382926  1 N  px                 4      0.168129  1 N  py         
    20     -0.092333  4 H  s                 16      0.089543  2 H  s          
    19      0.043404  3 H  s                 12     -0.025069  1 N  dxz        

 Vector    9  Occ=0.000000D+00  E= 6.837706D-01
              MO Center= -9.0D-03, -5.2D-02,  1.5D-01, r^2= 1.7D+00
   Bfn.  Coefficient  Atom+Function         Bfn.  Coefficient  Atom+Function  
  ----- ------------  ---------------      ----- ------------  ---------------
     8     -0.828424  1 N  py                 7      0.801217  1 N  px         
    18      0.734193  3 H  s                 20     -0.583819  4 H  s          
     4      0.255911  1 N  py                 3     -0.247489  1 N  px         
    16     -0.150413  2 H  s                 11     -0.132042  1 N  dxy        
    12      0.108724  1 N  dxz               19     -0.107151  3 H  s          

 Vector   10  Occ=0.000000D+00  E= 6.837914D-01
              MO Center=  1.4D-02,  5.1D-02,  1.5D-01, r^2= 1.7D+00
   Bfn.  Coefficient  Atom+Function         Bfn.  Coefficient  Atom+Function  
  ----- ------------  ---------------      ----- ------------  ---------------
     7      0.828638  1 N  px                 8      0.801444  1 N  py         
    16      0.760971  2 H  s                 20     -0.510679  4 H  s          
     3     -0.255922  1 N  px                18     -0.250214  3 H  s          
     4     -0.247539  1 N  py                11      0.211850  1 N  dxy        
    12      0.112774  1 N  dxz               17     -0.110730  2 H  s          

 Vector   11  Occ=0.000000D+00  E= 7.218937D-01
              MO Center=  6.2D-03, -2.0D-03,  3.9D-01, r^2= 1.3D+00
   Bfn.  Coefficient  Atom+Function         Bfn.  Coefficient  Atom+Function  
  ----- ------------  ---------------      ----- ------------  ---------------
     9      1.117623  1 N  pz                 5     -0.982209  1 N  pz         
     2     -0.171713  1 N  s                 17      0.138217  2 H  s          
    19      0.138211  3 H  s                 21      0.138218  4 H  s          
     6     -0.052613  1 N  s                 15     -0.047354  1 N  dzz        
    10     -0.045366  1 N  dxx               13     -0.045336  1 N  dyy        

 Vector   12  Occ=0.000000D+00  E= 9.156278D-01
              MO Center= -1.2D-01,  2.4D-01, -9.6D-02, r^2= 1.8D+00
   Bfn.  Coefficient  Atom+Function         Bfn.  Coefficient  Atom+Function  
  ----- ------------  ---------------      ----- ------------  ---------------
    19      1.475928  3 H  s                  8     -1.288187  1 N  py         
     4      0.902003  1 N  py                17     -0.754012  2 H  s          
    21     -0.714507  4 H  s                  7      0.582515  1 N  px         
    18     -0.553620  3 H  s                  3     -0.407899  1 N  px         
    16      0.279776  2 H  s                 20      0.265008  4 H  s          

 Vector   13  Occ=0.000000D+00  E= 9.156611D-01
              MO Center=  1.2D-01, -2.3D-01, -1.0D-01, r^2= 1.8D+00
   Bfn.  Coefficient  Atom+Function         Bfn.  Coefficient  Atom+Function  
  ----- ------------  ---------------      ----- ------------  ---------------
     7      1.288071  1 N  px                21     -1.286975  4 H  s          
    17      1.265215  2 H  s                  3     -0.901945  1 N  px         
     8      0.582691  1 N  py                20      0.480568  4 H  s          
    16     -0.473319  2 H  s                  4     -0.408013  1 N  py         
    12     -0.112582  1 N  dxz               11     -0.109130  1 N  dxy        

 Vector   14  Occ=0.000000D+00  E= 9.209905D-01
              MO Center= -2.7D-03, -1.8D-03, -3.4D-01, r^2= 1.6D+00
   Bfn.  Coefficient  Atom+Function         Bfn.  Coefficient  Atom+Function  
  ----- ------------  ---------------      ----- ------------  ---------------
     6      1.081254  1 N  s                  2     -0.723586  1 N  s          
    16      0.701633  2 H  s                 20      0.702480  4 H  s          
    18      0.698571  3 H  s                 17     -0.587895  2 H  s          
    21     -0.590019  4 H  s                 19     -0.579614  3 H  s          
    15     -0.248198  1 N  dzz                5      0.238418  1 N  pz         

 Vector   15  Occ=0.000000D+00  E= 1.153371D+00
              MO Center= -3.7D-03,  1.2D-03, -2.3D-01, r^2= 1.7D+00
   Bfn.  Coefficient  Atom+Function         Bfn.  Coefficient  Atom+Function  
  ----- ------------  ---------------      ----- ------------  ---------------
     6      4.088540  1 N  s                  2     -1.535075  1 N  s          
     9     -0.838312  1 N  pz                17     -0.787064  2 H  s          
    19     -0.786916  3 H  s                 21     -0.787092  4 H  s          
    10     -0.401390  1 N  dxx               13     -0.401470  1 N  dyy        
    16     -0.359391  2 H  s                 18     -0.359484  3 H  s          

 Vector   16  Occ=0.000000D+00  E= 1.675645D+00
              MO Center=  1.0D-03, -1.4D-02,  1.3D-01, r^2= 6.1D-01
   Bfn.  Coefficient  Atom+Function         Bfn.  Coefficient  Atom+Function  
  ----- ------------  ---------------      ----- ------------  ---------------
    12     -0.985941  1 N  dxz               11      0.911775  1 N  dxy        
    14     -0.858275  1 N  dyz               10     -0.343236  1 N  dxx        
    13      0.331708  1 N  dyy               16     -0.034399  2 H  s          
     7     -0.032744  1 N  px                 8     -0.027704  1 N  py         
    20      0.025160  4 H  s          

 Vector   17  Occ=0.000000D+00  E= 1.675655D+00
              MO Center=  3.2D-03,  1.3D-02,  1.3D-01, r^2= 6.1D-01
   Bfn.  Coefficient  Atom+Function         Bfn.  Coefficient  Atom+Function  
  ----- ------------  ---------------      ----- ------------  ---------------
    14      1.015974  1 N  dyz               12     -0.835256  1 N  dxz        
    11     -0.634852  1 N  dxy               10     -0.473359  1 N  dxx        
    13      0.455140  1 N  dyy               18     -0.034378  3 H  s          
     8      0.032747  1 N  py                 7     -0.027697  1 N  px         
    20      0.025196  4 H  s          

 Vector   18  Occ=0.000000D+00  E= 1.944418D+00
              MO Center=  2.0D-03, -6.1D-04,  1.2D-01, r^2= 8.2D-01
   Bfn.  Coefficient  Atom+Function         Bfn.  Coefficient  Atom+Function  
  ----- ------------  ---------------      ----- ------------  ---------------
     6      1.540289  1 N  s                 15     -1.060309  1 N  dzz        
     2     -0.470915  1 N  s                  9     -0.462198  1 N  pz         
    16     -0.464444  2 H  s                 18     -0.464488  3 H  s          
    20     -0.464443  4 H  s                 10      0.442369  1 N  dxx        
    13      0.442735  1 N  dyy               17     -0.209649  2 H  s          

 Vector   19  Occ=0.000000D+00  E= 2.403196D+00
              MO Center= -2.0D-02,  3.0D-02,  8.5D-02, r^2= 8.9D-01
   Bfn.  Coefficient  Atom+Function         Bfn.  Coefficient  Atom+Function  
  ----- ------------  ---------------      ----- ------------  ---------------
    11      1.320076  1 N  dxy               14      1.248094  1 N  dyz        
    18      0.910071  3 H  s                  8     -0.616367  1 N  py         
    16     -0.520497  2 H  s                 12     -0.483047  1 N  dxz        
    13     -0.457480  1 N  dyy               10      0.443680  1 N  dxx        
    20     -0.389782  4 H  s                  7      0.230171  1 N  px         

 Vector   20  Occ=0.000000D+00  E= 2.403253D+00
              MO Center=  2.3D-02, -3.1D-02,  8.4D-02, r^2= 8.9D-01
   Bfn.  Coefficient  Atom+Function         Bfn.  Coefficient  Atom+Function  
  ----- ------------  ---------------      ----- ------------  ---------------
    12      1.297819  1 N  dxz               11      0.903448  1 N  dxy        
    20      0.826019  4 H  s                 16     -0.750522  2 H  s          
    13      0.646542  1 N  dyy               10     -0.628598  1 N  dxx        
     7     -0.616410  1 N  px                14      0.468011  1 N  dyz        
     8     -0.230345  1 N  py                18     -0.075451  3 H  s          

 Vector   21  Occ=0.000000D+00  E= 3.669031D+00
              MO Center=  1.8D-03, -5.8D-04,  1.2D-01, r^2= 9.9D-01
   Bfn.  Coefficient  Atom+Function         Bfn.  Coefficient  Atom+Function  
  ----- ------------  ---------------      ----- ------------  ---------------
     6      3.201840  1 N  s                 15     -1.526937  1 N  dzz        
    10     -1.501950  1 N  dxx               13     -1.501922  1 N  dyy        
     2      1.160788  1 N  s                 17     -0.565733  2 H  s          
    19     -0.565664  3 H  s                 21     -0.565741  4 H  s          
     1     -0.466749  1 N  s                  9     -0.331442  1 N  pz         


     ---------------------------------------------
      Total Density - Mulliken Population Analysis
     ---------------------------------------------

    Atom       Charge   Shell Charges
 -----------   ------   -------------------------------------------------------
    1 N    7     7.89   1.99  0.79  2.49  0.93  1.65  0.03
    2 H    1     0.70   0.51  0.20
    3 H    1     0.70   0.51  0.20
    4 H    1     0.70   0.51  0.20

     -------------------------------------------
      Total Density - Lowdin Population Analysis
     -------------------------------------------

    Atom       Charge   Shell Charges
 -----------   ------   -------------------------------------------------------
    1 N    7     7.75   1.98  0.54  2.32  0.44  1.91  0.56
    2 H    1     0.75   0.47  0.28
    3 H    1     0.75   0.47  0.28
    4 H    1     0.75   0.47  0.28


                         DFT ENERGY GRADIENTS

    atom               coordinates                        gradient
                 x          y          z           x          y          z
   1 N       0.003534  -0.001134   0.223441    0.000012  -0.000043  -0.000874
   2 H      -1.021076  -1.456034  -0.512607   -0.000025  -0.000038   0.000299
   3 H      -0.764829   1.609102  -0.501458   -0.000027   0.000077   0.000277
   4 H       1.761168  -0.145131  -0.550024    0.000040   0.000004   0.000298


@ Step       Energy      Delta E   Gmax     Grms     Xrms     Xmax   Walltime
@ ---- ---------------- -------- -------- -------- -------- -------- --------
@    0     -56.54794533  0.0D+00  0.00087  0.00029  0.00000  0.00000      2.4
                                              ok                    


                                 NWChem DFT Module
                                 -----------------


                                     cpd00939



  Caching 1-el integrals 
   Time after variat. SCF:      2.5

     ---------------------------------------------
      Total Density - Mulliken Population Analysis
     ---------------------------------------------

    Atom       Charge   Shell Charges
 -----------   ------   -------------------------------------------------------
    1 N    7     7.89   1.99  0.79  2.49  0.93  1.65  0.03
    2 H    1     0.70   0.51  0.20
    3 H    1     0.70   0.51  0.20
    4 H    1     0.70   0.51  0.20
   Time prior to 1st pass:      2.5


         Total DFT energy =      -56.547948381159
      One electron energy =      -99.560350545571
           Coulomb energy =       39.166611932766
    Exchange-Corr. energy =       -8.029489804608
 Nuclear repulsion energy =       11.875280036254

 Numeric. integr. density =        9.999999385255

     Total iterative time =      0.7s



                       DFT Final Molecular Orbital Analysis
                       ------------------------------------

 Vector    1  Occ=2.000000D+00  E=-1.430613D+01
              MO Center=  2.1D-03, -5.5D-04,  1.2D-01, r^2= 2.0D-02
   Bfn.  Coefficient  Atom+Function         Bfn.  Coefficient  Atom+Function  
  ----- ------------  ---------------      ----- ------------  ---------------
     1      0.992708  1 N  s                  2      0.034639  1 N  s          

 Vector    2  Occ=2.000000D+00  E=-8.453306D-01
              MO Center= -1.4D-03,  5.0D-04, -9.2D-02, r^2= 7.0D-01
   Bfn.  Coefficient  Atom+Function         Bfn.  Coefficient  Atom+Function  
  ----- ------------  ---------------      ----- ------------  ---------------
     6      0.426400  1 N  s                  2      0.415151  1 N  s          
     1     -0.198716  1 N  s                 16      0.140025  2 H  s          
    18      0.140031  3 H  s                 20      0.140016  4 H  s          
     5     -0.116932  1 N  pz                 9     -0.058903  1 N  pz         

 Vector    3  Occ=2.000000D+00  E=-4.522200D-01
              MO Center=  1.9D-01,  3.7D-02, -6.1D-02, r^2= 9.8D-01
   Bfn.  Coefficient  Atom+Function         Bfn.  Coefficient  Atom+Function  
  ----- ------------  ---------------      ----- ------------  ---------------
     3      0.470523  1 N  px                20      0.277159  4 H  s          
     7      0.241591  1 N  px                21      0.193725  4 H  s          
    18     -0.170961  3 H  s                 19     -0.119500  3 H  s          
    16     -0.106250  2 H  s                  4     -0.103905  1 N  py         
    17     -0.074268  2 H  s                 12     -0.060497  1 N  dxz        

 Vector    4  Occ=2.000000D+00  E=-4.520878D-01
              MO Center= -2.0D-01, -3.6D-02, -5.5D-02, r^2= 9.8D-01
   Bfn.  Coefficient  Atom+Function         Bfn.  Coefficient  Atom+Function  
  ----- ------------  ---------------      ----- ------------  ---------------
     4      0.470601  1 N  py                16     -0.258704  2 H  s          
     8      0.241686  1 N  py                18      0.221331  3 H  s          
    17     -0.180933  2 H  s                 19      0.154790  3 H  s          
     3      0.103931  1 N  px                14     -0.059644  1 N  dyz        
     7      0.053377  1 N  px                20      0.037349  4 H  s          

 Vector    5  Occ=2.000000D+00  E=-2.525092D-01
              MO Center=  4.8D-03, -1.4D-03,  3.0D-01, r^2= 8.2D-01
   Bfn.  Coefficient  Atom+Function         Bfn.  Coefficient  Atom+Function  
  ----- ------------  ---------------      ----- ------------  ---------------
     5      0.552546  1 N  pz                 9      0.464658  1 N  pz         
     6      0.342874  1 N  s                  2      0.165520  1 N  s          
     1     -0.076453  1 N  s                 17     -0.067007  2 H  s          
    19     -0.067013  3 H  s                 21     -0.067049  4 H  s          
    16     -0.065887  2 H  s                 18     -0.065898  3 H  s          

 Vector    6  Occ=0.000000D+00  E= 7.852051D-02
              MO Center= -6.1D-03,  1.8D-03, -3.8D-01, r^2= 3.1D+00
   Bfn.  Coefficient  Atom+Function         Bfn.  Coefficient  Atom+Function  
  ----- ------------  ---------------      ----- ------------  ---------------
     6      1.811361  1 N  s                 17     -0.919672  2 H  s          
    19     -0.919629  3 H  s                 21     -0.919703  4 H  s          
     9     -0.478064  1 N  pz                 5     -0.200115  1 N  pz         
     2      0.168253  1 N  s                  1     -0.127226  1 N  s          
    16     -0.056618  2 H  s                 18     -0.056618  3 H  s          

 Vector    7  Occ=0.000000D+00  E= 1.676829D-01
              MO Center= -5.0D-01, -1.9D-01, -3.2D-01, r^2= 2.6D+00
   Bfn.  Coefficient  Atom+Function         Bfn.  Coefficient  Atom+Function  
  ----- ------------  ---------------      ----- ------------  ---------------
    17      1.561729  2 H  s                 19     -1.189751  3 H  s          
     8      0.958944  1 N  py                 4      0.398274  1 N  py         
    21     -0.372120  4 H  s                  7      0.310841  1 N  px         
     3      0.129092  1 N  px                16      0.101225  2 H  s          
    18     -0.077144  3 H  s                 14     -0.026495  1 N  dyz        

 Vector    8  Occ=0.000000D+00  E= 1.677083D-01
              MO Center=  4.8D-01,  2.0D-01, -3.4D-01, r^2= 2.6D+00
   Bfn.  Coefficient  Atom+Function         Bfn.  Coefficient  Atom+Function  
  ----- ------------  ---------------      ----- ------------  ---------------
    21      1.588724  4 H  s                 19     -1.116649  3 H  s          
     7     -0.959097  1 N  px                17     -0.472115  2 H  s          
     3     -0.398223  1 N  px                 8      0.310842  1 N  py         
     4      0.129072  1 N  py                20      0.102860  4 H  s          
    18     -0.072255  3 H  s                 16     -0.030514  2 H  s          

 Vector    9  Occ=0.000000D+00  E= 6.830371D-01
              MO Center=  5.2D-02,  6.2D-03,  1.6D-01, r^2= 1.7D+00
   Bfn.  Coefficient  Atom+Function         Bfn.  Coefficient  Atom+Function  
  ----- ------------  ---------------      ----- ------------  ---------------
     8      1.124788  1 N  py                16      0.710632  2 H  s          
    18     -0.625569  3 H  s                  4     -0.348554  1 N  py         
    11      0.247996  1 N  dxy                7      0.220288  1 N  px         
    14      0.147039  1 N  dyz               17     -0.110151  2 H  s          
    19      0.096905  3 H  s                 20     -0.085346  4 H  s          

 Vector   10  Occ=0.000000D+00  E= 6.832322D-01
              MO Center= -4.7D-02, -7.7D-03,  1.6D-01, r^2= 1.7D+00
   Bfn.  Coefficient  Atom+Function         Bfn.  Coefficient  Atom+Function  
  ----- ------------  ---------------      ----- ------------  ---------------
     7      1.125684  1 N  px                20     -0.771777  4 H  s          
    18      0.459288  3 H  s                  3     -0.348512  1 N  px         
    16      0.311639  2 H  s                  8     -0.220503  1 N  py         
    12      0.155059  1 N  dxz               13      0.122991  1 N  dyy        
    10     -0.120535  1 N  dxx               21      0.118489  4 H  s          

 Vector   11  Occ=0.000000D+00  E= 7.218961D-01
              MO Center=  6.6D-03, -1.9D-03,  4.0D-01, r^2= 1.3D+00
   Bfn.  Coefficient  Atom+Function         Bfn.  Coefficient  Atom+Function  
  ----- ------------  ---------------      ----- ------------  ---------------
     9      1.118438  1 N  pz                 5     -0.982035  1 N  pz         
     2     -0.173849  1 N  s                 17      0.139689  2 H  s          
    19      0.139692  3 H  s                 21      0.139695  4 H  s          
     6     -0.050475  1 N  s                 15     -0.047755  1 N  dzz        
    10     -0.046047  1 N  dxx               13     -0.045974  1 N  dyy        

 Vector   12  Occ=0.000000D+00  E= 9.148980D-01
              MO Center= -2.5D-01, -8.7D-02, -9.4D-02, r^2= 1.8D+00
   Bfn.  Coefficient  Atom+Function         Bfn.  Coefficient  Atom+Function  
  ----- ------------  ---------------      ----- ------------  ---------------
    17      1.403426  2 H  s                  8      1.352751  1 N  py         
    19     -1.091300  3 H  s                  4     -0.946747  1 N  py         
    16     -0.524076  2 H  s                  7      0.412455  1 N  px         
    18      0.406691  3 H  s                 21     -0.310213  4 H  s          
     3     -0.288664  1 N  px                11     -0.174209  1 N  dxy        

 Vector   13  Occ=0.000000D+00  E= 9.149607D-01
              MO Center=  2.4D-01,  8.7D-02, -1.0D-01, r^2= 1.8D+00
   Bfn.  Coefficient  Atom+Function         Bfn.  Coefficient  Atom+Function  
  ----- ------------  ---------------      ----- ------------  ---------------
    21     -1.440883  4 H  s                  7      1.352652  1 N  px         
    19      0.988728  3 H  s                  3     -0.946678  1 N  px         
    20      0.538301  4 H  s                 17      0.450289  2 H  s          
     8     -0.412389  1 N  py                18     -0.368354  3 H  s          
     4      0.288623  1 N  py                16     -0.167434  2 H  s          

 Vector   14  Occ=0.000000D+00  E= 9.222963D-01
              MO Center= -6.4D-03,  3.0D-03, -3.4D-01, r^2= 1.6D+00
   Bfn.  Coefficient  Atom+Function         Bfn.  Coefficient  Atom+Function  
  ----- ------------  ---------------      ----- ------------  ---------------
     6      1.127443  1 N  s                  2     -0.741593  1 N  s          
    16      0.697071  2 H  s                 18      0.698164  3 H  s          
    20      0.696415  4 H  s                 19     -0.595962  3 H  s          
    17     -0.592706  2 H  s                 21     -0.592622  4 H  s          
    15     -0.249104  1 N  dzz                5      0.240745  1 N  pz         

 Vector   15  Occ=0.000000D+00  E= 1.156510D+00
              MO Center= -3.7D-03,  1.2D-03, -2.4D-01, r^2= 1.7D+00
   Bfn.  Coefficient  Atom+Function         Bfn.  Coefficient  Atom+Function  
  ----- ------------  ---------------      ----- ------------  ---------------
     6      4.078501  1 N  s                  2     -1.526472  1 N  s          
     9     -0.850021  1 N  pz                17     -0.780606  2 H  s          
    19     -0.780700  3 H  s                 21     -0.780702  4 H  s          
    10     -0.402298  1 N  dxx               13     -0.402208  1 N  dyy        
    16     -0.370822  2 H  s                 18     -0.370683  3 H  s          

 Vector   16  Occ=0.000000D+00  E= 1.675407D+00
              MO Center=  1.6D-02,  1.3D-03,  1.4D-01, r^2= 6.1D-01
   Bfn.  Coefficient  Atom+Function         Bfn.  Coefficient  Atom+Function  
  ----- ------------  ---------------      ----- ------------  ---------------
    12      1.260816  1 N  dxz               10      0.587347  1 N  dxx        
    13     -0.566885  1 N  dyy               14     -0.260630  1 N  dyz        
    11     -0.070116  1 N  dxy                7      0.041630  1 N  px         
    20     -0.034932  4 H  s          

 Vector   17  Occ=0.000000D+00  E= 1.675484D+00
              MO Center= -1.1D-02, -2.6D-03,  1.4D-01, r^2= 6.1D-01
   Bfn.  Coefficient  Atom+Function         Bfn.  Coefficient  Atom+Function  
  ----- ------------  ---------------      ----- ------------  ---------------
    14      1.298250  1 N  dyz               11     -1.115714  1 N  dxy        
    12      0.251582  1 N  dxz                8      0.041620  1 N  py         
    16      0.032142  2 H  s                 18     -0.028226  3 H  s          
    10     -0.026000  1 N  dxx        

 Vector   18  Occ=0.000000D+00  E= 1.939872D+00
              MO Center=  2.1D-03, -6.1D-04,  1.3D-01, r^2= 8.2D-01
   Bfn.  Coefficient  Atom+Function         Bfn.  Coefficient  Atom+Function  
  ----- ------------  ---------------      ----- ------------  ---------------
     6      1.543476  1 N  s                 15     -1.058761  1 N  dzz        
     2     -0.472930  1 N  s                  9     -0.467391  1 N  pz         
    16     -0.463087  2 H  s                 18     -0.463049  3 H  s          
    20     -0.462997  4 H  s                 10      0.441563  1 N  dxx        
    13      0.440881  1 N  dyy               17     -0.211037  2 H  s          

 Vector   19  Occ=0.000000D+00  E= 2.402734D+00
              MO Center= -1.3D-02, -3.5D-02,  8.7D-02, r^2= 8.9D-01
   Bfn.  Coefficient  Atom+Function         Bfn.  Coefficient  Atom+Function  
  ----- ------------  ---------------      ----- ------------  ---------------
    11      1.418130  1 N  dxy               14      1.014045  1 N  dyz        
    12      0.914324  1 N  dxz               16     -0.906435  2 H  s          
    20      0.538187  4 H  s                  8     -0.493589  1 N  py         
     7     -0.428659  1 N  px                18      0.368382  3 H  s          
    13      0.347148  1 N  dyy               10     -0.337932  1 N  dxx        

 Vector   20  Occ=0.000000D+00  E= 2.402763D+00
              MO Center=  1.6D-02,  3.4D-02,  8.7D-02, r^2= 8.9D-01
   Bfn.  Coefficient  Atom+Function         Bfn.  Coefficient  Atom+Function  
  ----- ------------  ---------------      ----- ------------  ---------------
    12      1.051630  1 N  dxz               14     -0.877958  1 N  dyz        
    18     -0.834097  3 H  s                 20      0.736133  4 H  s          
    11     -0.724060  1 N  dxy               13      0.707328  1 N  dyy        
    10     -0.686440  1 N  dxx                7     -0.494257  1 N  px         
     8      0.428442  1 N  py                16      0.097960  2 H  s          

 Vector   21  Occ=0.000000D+00  E= 3.668129D+00
              MO Center=  2.0D-03, -5.4D-04,  1.2D-01, r^2= 9.9D-01
   Bfn.  Coefficient  Atom+Function         Bfn.  Coefficient  Atom+Function  
  ----- ------------  ---------------      ----- ------------  ---------------
     6      3.201527  1 N  s                 15     -1.527046  1 N  dzz        
    10     -1.501510  1 N  dxx               13     -1.501449  1 N  dyy        
     2      1.160640  1 N  s                 17     -0.565146  2 H  s          
    19     -0.565201  3 H  s                 21     -0.565247  4 H  s          
     1     -0.466750  1 N  s                  9     -0.335301  1 N  pz         


     ---------------------------------------------
      Total Density - Mulliken Population Analysis
     ---------------------------------------------

    Atom       Charge   Shell Charges
 -----------   ------   -------------------------------------------------------
    1 N    7     7.89   1.99  0.79  2.49  0.93  1.65  0.03
    2 H    1     0.70   0.51  0.20
    3 H    1     0.70   0.51  0.20
    4 H    1     0.70   0.51  0.20

     -------------------------------------------
      Total Density - Lowdin Population Analysis
     -------------------------------------------

    Atom       Charge   Shell Charges
 -----------   ------   -------------------------------------------------------
    1 N    7     7.75   1.98  0.54  2.32  0.44  1.91  0.56
    2 H    1     0.75   0.47  0.28
    3 H    1     0.75   0.47  0.28
    4 H    1     0.75   0.47  0.28
 Line search: 
     step= 1.00 grad=-7.4D-06 hess= 4.4D-06 energy=    -56.547948 mode=accept  
 new step= 1.00                   predicted energy=    -56.547948

          --------
          Step   1
          --------

                                 NWChem DFT Module
                                 -----------------


                                     cpd00939




  The DFT is already converged 

         Total DFT energy =    -56.547948381159



                         DFT ENERGY GRADIENTS

    atom               coordinates                        gradient
                 x          y          z           x          y          z
   1 N       0.003888  -0.001048   0.229475    0.000098   0.000030   0.000238
   2 H      -1.020016  -1.453879  -0.514694   -0.000105  -0.000057  -0.000102
   3 H      -0.764295   1.606829  -0.503492   -0.000100   0.000051  -0.000081
   4 H       1.759220  -0.145098  -0.551936    0.000107  -0.000024  -0.000055


  Step       Energy      Delta E   Gmax     Grms     Xrms     Xmax   Walltime
  ---- ---------------- -------- -------- -------- -------- -------- --------
@    1     -56.54794838 -3.1D-06  0.00024  0.00010  0.00230  0.00603      4.3
                                     ok       ok                    


                                 NWChem DFT Module
                                 -----------------


                                     cpd00939



  Caching 1-el integrals 
   Time after variat. SCF:      4.4

     ---------------------------------------------
      Total Density - Mulliken Population Analysis
     ---------------------------------------------

    Atom       Charge   Shell Charges
 -----------   ------   -------------------------------------------------------
    1 N    7     7.89   1.99  0.79  2.49  0.93  1.65  0.03
    2 H    1     0.70   0.51  0.20
    3 H    1     0.70   0.51  0.20
    4 H    1     0.70   0.51  0.20
   Time prior to 1st pass:      4.4


         Total DFT energy =      -56.547948744184
      One electron energy =      -99.563283111664
           Coulomb energy =       39.167886776032
    Exchange-Corr. energy =       -8.029626952039
 Nuclear repulsion energy =       11.877074543488

 Numeric. integr. density =       10.000000083402

     Total iterative time =      0.6s



                       DFT Final Molecular Orbital Analysis
                       ------------------------------------

 Vector    1  Occ=2.000000D+00  E=-1.430604D+01
              MO Center=  1.8D-03, -5.6D-04,  1.2D-01, r^2= 2.0D-02
   Bfn.  Coefficient  Atom+Function         Bfn.  Coefficient  Atom+Function  
  ----- ------------  ---------------      ----- ------------  ---------------
     1      0.992708  1 N  s                  2      0.034639  1 N  s          

 Vector    2  Occ=2.000000D+00  E=-8.453228D-01
              MO Center= -1.5D-03,  4.7D-04, -9.2D-02, r^2= 7.0D-01
   Bfn.  Coefficient  Atom+Function         Bfn.  Coefficient  Atom+Function  
  ----- ------------  ---------------      ----- ------------  ---------------
     6      0.426352  1 N  s                  2      0.415180  1 N  s          
     1     -0.198730  1 N  s                 16      0.140049  2 H  s          
    18      0.140040  3 H  s                 20      0.140030  4 H  s          
     5     -0.116822  1 N  pz                 9     -0.058823  1 N  pz         

 Vector    3  Occ=2.000000D+00  E=-4.522714D-01
              MO Center= -1.9D-01,  4.7D-02, -5.5D-02, r^2= 9.8D-01
   Bfn.  Coefficient  Atom+Function         Bfn.  Coefficient  Atom+Function  
  ----- ------------  ---------------      ----- ------------  ---------------
     4      0.481929  1 N  py                18      0.252215  3 H  s          
     8      0.247423  1 N  py                16     -0.230820  2 H  s          
    19      0.176204  3 H  s                 17     -0.161257  2 H  s          
    14     -0.061020  1 N  dyz               11     -0.027443  1 N  dxy        

 Vector    4  Occ=2.000000D+00  E=-4.521984D-01
              MO Center=  1.9D-01, -4.6D-02, -6.1D-02, r^2= 9.8D-01
   Bfn.  Coefficient  Atom+Function         Bfn.  Coefficient  Atom+Function  
  ----- ------------  ---------------      ----- ------------  ---------------
     3      0.481878  1 N  px                20      0.278875  4 H  s          
     7      0.247434  1 N  px                21      0.194893  4 H  s          
    16     -0.157951  2 H  s                 18     -0.120889  3 H  s          
    17     -0.110379  2 H  s                 19     -0.084479  3 H  s          
    12     -0.061897  1 N  dxz        

 Vector    5  Occ=2.000000D+00  E=-2.524057D-01
              MO Center=  4.6D-03, -1.4D-03,  2.9D-01, r^2= 8.2D-01
   Bfn.  Coefficient  Atom+Function         Bfn.  Coefficient  Atom+Function  
  ----- ------------  ---------------      ----- ------------  ---------------
     5      0.552664  1 N  pz                 9      0.464878  1 N  pz         
     6      0.342440  1 N  s                  2      0.165329  1 N  s          
     1     -0.076361  1 N  s                 17     -0.066905  2 H  s          
    19     -0.066913  3 H  s                 21     -0.066896  4 H  s          
    16     -0.065827  2 H  s                 18     -0.065834  3 H  s          

 Vector    6  Occ=0.000000D+00  E= 7.858419D-02
              MO Center= -5.9D-03,  1.9D-03, -3.8D-01, r^2= 3.1D+00
   Bfn.  Coefficient  Atom+Function         Bfn.  Coefficient  Atom+Function  
  ----- ------------  ---------------      ----- ------------  ---------------
     6      1.812002  1 N  s                 17     -0.919805  2 H  s          
    19     -0.919858  3 H  s                 21     -0.919886  4 H  s          
     9     -0.477496  1 N  pz                 5     -0.199845  1 N  pz         
     2      0.168322  1 N  s                  1     -0.127261  1 N  s          
    16     -0.056626  2 H  s                 18     -0.056642  3 H  s          

 Vector    7  Occ=0.000000D+00  E= 1.677618D-01
              MO Center=  5.2D-01,  3.2D-03, -3.4D-01, r^2= 2.6D+00
   Bfn.  Coefficient  Atom+Function         Bfn.  Coefficient  Atom+Function  
  ----- ------------  ---------------      ----- ------------  ---------------
    21      1.630532  4 H  s                  7     -1.000324  1 N  px         
    19     -0.876293  3 H  s                 17     -0.754513  2 H  s          
     3     -0.415195  1 N  px                 8      0.127171  1 N  py         
    20      0.105507  4 H  s                 18     -0.056703  3 H  s          
     4      0.052778  1 N  py                16     -0.048838  2 H  s          

 Vector    8  Occ=0.000000D+00  E= 1.677844D-01
              MO Center= -5.3D-01,  1.1D-04, -3.2D-01, r^2= 2.6D+00
   Bfn.  Coefficient  Atom+Function         Bfn.  Coefficient  Atom+Function  
  ----- ------------  ---------------      ----- ------------  ---------------
    17      1.447522  2 H  s                 19     -1.377112  3 H  s          
     8      1.000613  1 N  py                 4      0.415239  1 N  py         
     7      0.127223  1 N  px                16      0.093581  2 H  s          
    18     -0.089035  3 H  s                 21     -0.070280  4 H  s          
     3      0.052801  1 N  px                14     -0.027641  1 N  dyz        

 Vector    9  Occ=0.000000D+00  E= 6.831558D-01
              MO Center= -4.5D-02,  1.7D-02,  1.6D-01, r^2= 1.7D+00
   Bfn.  Coefficient  Atom+Function         Bfn.  Coefficient  Atom+Function  
  ----- ------------  ---------------      ----- ------------  ---------------
     7      1.145735  1 N  px                20     -0.768723  4 H  s          
    16      0.475851  2 H  s                  3     -0.354792  1 N  px         
    18      0.293242  3 H  s                 12      0.157498  1 N  dxz        
    13      0.117531  1 N  dyy               21      0.117719  4 H  s          
    10     -0.115081  1 N  dxx               11      0.072854  1 N  dxy        

 Vector   10  Occ=0.000000D+00  E= 6.832447D-01
              MO Center=  5.0D-02, -1.8D-02,  1.6D-01, r^2= 1.7D+00
   Bfn.  Coefficient  Atom+Function         Bfn.  Coefficient  Atom+Function  
  ----- ------------  ---------------      ----- ------------  ---------------
     8      1.146471  1 N  py                18     -0.718616  3 H  s          
    16      0.613061  2 H  s                  4     -0.354840  1 N  py         
    11      0.237520  1 N  dxy               14      0.149476  1 N  dyz        
    19      0.109417  3 H  s                 20      0.105387  4 H  s          
    17     -0.093243  2 H  s                  7     -0.060631  1 N  px         

 Vector   11  Occ=0.000000D+00  E= 7.218966D-01
              MO Center=  6.1D-03, -1.9D-03,  4.0D-01, r^2= 1.3D+00
   Bfn.  Coefficient  Atom+Function         Bfn.  Coefficient  Atom+Function  
  ----- ------------  ---------------      ----- ------------  ---------------
     9      1.118381  1 N  pz                 5     -0.982041  1 N  pz         
     2     -0.173581  1 N  s                 17      0.139486  2 H  s          
    19      0.139485  3 H  s                 21      0.139482  4 H  s          
     6     -0.050845  1 N  s                 15     -0.047712  1 N  dzz        
    10     -0.045892  1 N  dxx               13     -0.045959  1 N  dyy        

 Vector   12  Occ=0.000000D+00  E= 9.150698D-01
              MO Center=  2.6D-01, -7.1D-03, -1.0D-01, r^2= 1.8D+00
   Bfn.  Coefficient  Atom+Function         Bfn.  Coefficient  Atom+Function  
  ----- ------------  ---------------      ----- ------------  ---------------
    21     -1.474530  4 H  s                  7      1.405280  1 N  px         
     3     -0.983616  1 N  px                19      0.770041  3 H  s          
    17      0.700031  2 H  s                 20      0.551471  4 H  s          
    18     -0.286249  3 H  s                 16     -0.260112  2 H  s          
     8     -0.156329  1 N  py                12     -0.123193  1 N  dxz        

 Vector   13  Occ=0.000000D+00  E= 9.151224D-01
              MO Center= -2.6D-01,  9.3D-03, -9.4D-02, r^2= 1.8D+00
   Bfn.  Coefficient  Atom+Function         Bfn.  Coefficient  Atom+Function  
  ----- ------------  ---------------      ----- ------------  ---------------
     8      1.405468  1 N  py                17      1.295128  2 H  s          
    19     -1.256280  3 H  s                  4     -0.983781  1 N  py         
    16     -0.482771  2 H  s                 18      0.469582  3 H  s          
    11     -0.173159  1 N  dxy                7      0.156397  1 N  px         
    14     -0.117642  1 N  dyz                3     -0.109471  1 N  px         

 Vector   14  Occ=0.000000D+00  E= 9.222592D-01
              MO Center= -8.0D-03,  5.4D-04, -3.4D-01, r^2= 1.6D+00
   Bfn.  Coefficient  Atom+Function         Bfn.  Coefficient  Atom+Function  
  ----- ------------  ---------------      ----- ------------  ---------------
     6      1.121536  1 N  s                  2     -0.739395  1 N  s          
    16      0.698995  2 H  s                 18      0.697685  3 H  s          
    20      0.696448  4 H  s                 17     -0.596220  2 H  s          
    19     -0.592979  3 H  s                 21     -0.588949  4 H  s          
    15     -0.249057  1 N  dzz                5      0.240555  1 N  pz         

 Vector   15  Occ=0.000000D+00  E= 1.156115D+00
              MO Center= -3.8D-03,  1.2D-03, -2.4D-01, r^2= 1.7D+00
   Bfn.  Coefficient  Atom+Function         Bfn.  Coefficient  Atom+Function  
  ----- ------------  ---------------      ----- ------------  ---------------
     6      4.080269  1 N  s                  2     -1.527598  1 N  s          
     9     -0.848557  1 N  pz                17     -0.781717  2 H  s          
    19     -0.781660  3 H  s                 21     -0.781522  4 H  s          
    10     -0.402059  1 N  dxx               13     -0.402224  1 N  dyy        
    16     -0.369116  2 H  s                 18     -0.369064  3 H  s          

 Vector   16  Occ=0.000000D+00  E= 1.675430D+00
              MO Center= -1.1D-02,  3.7D-03,  1.4D-01, r^2= 6.1D-01
   Bfn.  Coefficient  Atom+Function         Bfn.  Coefficient  Atom+Function  
  ----- ------------  ---------------      ----- ------------  ---------------
    14      1.323472  1 N  dyz               11     -1.067226  1 N  dxy        
    10     -0.163803  1 N  dxx               13      0.156275  1 N  dyy        
    12     -0.053313  1 N  dxz                8      0.042481  1 N  py         
    18     -0.032390  3 H  s                 16      0.028003  2 H  s          

 Vector   17  Occ=0.000000D+00  E= 1.675466D+00
              MO Center=  1.5D-02, -5.0D-03,  1.4D-01, r^2= 6.1D-01
   Bfn.  Coefficient  Atom+Function         Bfn.  Coefficient  Atom+Function  
  ----- ------------  ---------------      ----- ------------  ---------------
    12      1.285738  1 N  dxz               10      0.564607  1 N  dxx        
    13     -0.544019  1 N  dyy               11     -0.331278  1 N  dxy        
    14      0.053125  1 N  dyz                7      0.042471  1 N  px         
    20     -0.034829  4 H  s          

 Vector   18  Occ=0.000000D+00  E= 1.940514D+00
              MO Center=  2.0D-03, -6.1D-04,  1.3D-01, r^2= 8.2D-01
   Bfn.  Coefficient  Atom+Function         Bfn.  Coefficient  Atom+Function  
  ----- ------------  ---------------      ----- ------------  ---------------
     6      1.543491  1 N  s                 15     -1.058940  1 N  dzz        
     2     -0.472669  1 N  s                  9     -0.466827  1 N  pz         
    16     -0.463327  2 H  s                 18     -0.463332  3 H  s          
    20     -0.463397  4 H  s                 10      0.440988  1 N  dxx        
    13      0.441784  1 N  dyy               17     -0.210906  2 H  s          

 Vector   19  Occ=0.000000D+00  E= 2.402925D+00
              MO Center=  3.8D-02,  8.3D-03,  8.6D-02, r^2= 8.9D-01
   Bfn.  Coefficient  Atom+Function         Bfn.  Coefficient  Atom+Function  
  ----- ------------  ---------------      ----- ------------  ---------------
    12      1.350971  1 N  dxz               20      0.900566  4 H  s          
    13      0.788649  1 N  dyy               10     -0.765888  1 N  dxx        
     7     -0.635215  1 N  px                18     -0.575336  3 H  s          
    16     -0.325447  2 H  s                 14     -0.320038  1 N  dyz        
     8      0.157020  1 N  py                 3     -0.062526  1 N  px         

 Vector   20  Occ=0.000000D+00  E= 2.402985D+00
              MO Center= -3.5D-02, -9.1D-03,  8.8D-02, r^2= 8.9D-01
   Bfn.  Coefficient  Atom+Function         Bfn.  Coefficient  Atom+Function  
  ----- ------------  ---------------      ----- ------------  ---------------
    11      1.592875  1 N  dxy               14      1.302108  1 N  dyz        
    16     -0.852239  2 H  s                 18      0.707907  3 H  s          
     8     -0.635698  1 N  py                12      0.335381  1 N  dxz        
     7     -0.156949  1 N  px                20      0.144234  4 H  s          
     4     -0.062561  1 N  py                17      0.030607  2 H  s          

 Vector   21  Occ=0.000000D+00  E= 3.668309D+00
              MO Center=  1.8D-03, -5.5D-04,  1.2D-01, r^2= 9.9D-01
   Bfn.  Coefficient  Atom+Function         Bfn.  Coefficient  Atom+Function  
  ----- ------------  ---------------      ----- ------------  ---------------
     6      3.201844  1 N  s                 15     -1.527043  1 N  dzz        
    10     -1.501561  1 N  dxx               13     -1.501611  1 N  dyy        
     2      1.160615  1 N  s                 17     -0.565387  2 H  s          
    19     -0.565370  3 H  s                 21     -0.565281  4 H  s          
     1     -0.466759  1 N  s                  9     -0.334822  1 N  pz         


     ---------------------------------------------
      Total Density - Mulliken Population Analysis
     ---------------------------------------------

    Atom       Charge   Shell Charges
 -----------   ------   -------------------------------------------------------
    1 N    7     7.89   1.99  0.79  2.49  0.93  1.65  0.03
    2 H    1     0.70   0.51  0.20
    3 H    1     0.70   0.51  0.20
    4 H    1     0.70   0.51  0.20

     -------------------------------------------
      Total Density - Lowdin Population Analysis
     -------------------------------------------

    Atom       Charge   Shell Charges
 -----------   ------   -------------------------------------------------------
    1 N    7     7.75   1.98  0.54  2.32  0.44  1.91  0.56
    2 H    1     0.75   0.47  0.28
    3 H    1     0.75   0.47  0.28
    4 H    1     0.75   0.47  0.28
 Line search: 
     step= 1.00 grad=-3.5D-07 hess=-1.4D-08 energy=    -56.547949 mode=accept  
 new step= 1.00                   predicted energy=    -56.547949

          --------
          Step   2
          --------

                                 NWChem DFT Module
                                 -----------------


                                     cpd00939




  The DFT is already converged 

         Total DFT energy =    -56.547948744184



                         DFT ENERGY GRADIENTS

    atom               coordinates                        gradient
                 x          y          z           x          y          z
   1 N       0.003444  -0.001066   0.228647   -0.000083   0.000001   0.000018
   2 H      -1.019738  -1.454421  -0.514348    0.000029  -0.000015   0.000007
   3 H      -0.763901   1.607333  -0.503171    0.000014   0.000024   0.000006
   4 H       1.758993  -0.145043  -0.551775    0.000041  -0.000011  -0.000031


  Step       Energy      Delta E   Gmax     Grms     Xrms     Xmax   Walltime
  ---- ---------------- -------- -------- -------- -------- -------- --------
@    2     -56.54794874 -3.6D-07  0.00008  0.00003  0.00040  0.00083      6.1
                                     ok       ok       ok       ok  


      ----------------------
      Optimization converged
      ----------------------


  Step       Energy      Delta E   Gmax     Grms     Xrms     Xmax   Walltime
  ---- ---------------- -------- -------- -------- -------- -------- --------
@    2     -56.54794874 -3.6D-07  0.00008  0.00003  0.00040  0.00083      6.1
                                     ok       ok       ok       ok  



                         Geometry "geometry" -> "geometry"
                         ---------------------------------

 Output coordinates in angstroms (scale by  1.889725989 to convert to a.u.)

  No.       Tag          Charge          X              Y              Z
 ---- ---------------- ---------- -------------- -------------- --------------
    1 N                    7.0000     0.00182249    -0.00056412     0.12099489
    2 H                    1.0000    -0.53962241    -0.76964646    -0.27218144
    3 H                    1.0000    -0.40423908     0.85056388    -0.26626662
    4 H                    1.0000     0.93081900    -0.07675331    -0.29198684

      Atomic Mass 
      ----------- 

      N                 14.003070
      H                  1.007825


 Effective nuclear repulsion energy (a.u.)      11.8770745435

            Nuclear Dipole moment (a.u.) 
            ----------------------------
        X                 Y               Z
 ---------------- ---------------- ----------------
    -0.0005387287     0.0004068665     0.0312359081



                                NWChem Input Module
                                -------------------


                              NWChem Property Module
                              ----------------------


                                 NWChem DFT Module
                                 -----------------


                                     cpd00939



  Caching 1-el integrals 
   Time after variat. SCF:      6.2

     ---------------------------------------------
      Total Density - Mulliken Population Analysis
     ---------------------------------------------

    Atom       Charge   Shell Charges
 -----------   ------   -------------------------------------------------------
    1 N    7     7.89   1.99  0.79  2.49  0.93  1.65  0.03
    2 H    1     0.70   0.51  0.20
    3 H    1     0.70   0.51  0.20
    4 H    1     0.70   0.51  0.20
   Time prior to 1st pass:      6.2


         Total DFT energy =      -56.547948450112
      One electron energy =      -99.563950620855
           Coulomb energy =       39.168640392046
    Exchange-Corr. energy =       -8.029712764791
 Nuclear repulsion energy =       11.877074543488

 Numeric. integr. density =        9.999999916455

     Total iterative time =      0.6s



                       DFT Final Molecular Orbital Analysis
                       ------------------------------------

 Vector    1  Occ=2.000000D+00  E=-1.430604D+01
              MO Center=  1.8D-03, -5.6D-04,  1.2D-01, r^2= 2.0D-02
   Bfn.  Coefficient  Atom+Function         Bfn.  Coefficient  Atom+Function  
  ----- ------------  ---------------      ----- ------------  ---------------
     1      0.992708  1 N  s                  2      0.034639  1 N  s          

 Vector    2  Occ=2.000000D+00  E=-8.453224D-01
              MO Center= -1.5D-03,  4.7D-04, -9.2D-02, r^2= 7.0D-01
   Bfn.  Coefficient  Atom+Function         Bfn.  Coefficient  Atom+Function  
  ----- ------------  ---------------      ----- ------------  ---------------
     6      0.426352  1 N  s                  2      0.415180  1 N  s          
     1     -0.198730  1 N  s                 16      0.140048  2 H  s          
    18      0.140039  3 H  s                 20      0.140031  4 H  s          
     5     -0.116821  1 N  pz                 9     -0.058823  1 N  pz         

 Vector    3  Occ=2.000000D+00  E=-4.522708D-01
              MO Center= -1.9D-01,  4.7D-02, -5.5D-02, r^2= 9.8D-01
   Bfn.  Coefficient  Atom+Function         Bfn.  Coefficient  Atom+Function  
  ----- ------------  ---------------      ----- ------------  ---------------
     4      0.481932  1 N  py                18      0.252323  3 H  s          
     8      0.247425  1 N  py                16     -0.230678  2 H  s          
    19      0.176280  3 H  s                 17     -0.161158  2 H  s          
    14     -0.061020  1 N  dyz               11     -0.027436  1 N  dxy        

 Vector    4  Occ=2.000000D+00  E=-4.521990D-01
              MO Center=  1.9D-01, -4.6D-02, -6.1D-02, r^2= 9.8D-01
   Bfn.  Coefficient  Atom+Function         Bfn.  Coefficient  Atom+Function  
  ----- ------------  ---------------      ----- ------------  ---------------
     3      0.481881  1 N  px                20      0.278856  4 H  s          
     7      0.247435  1 N  px                21      0.194880  4 H  s          
    16     -0.158158  2 H  s                 18     -0.120664  3 H  s          
    17     -0.110524  2 H  s                 19     -0.084321  3 H  s          
    12     -0.061897  1 N  dxz        

 Vector    5  Occ=2.000000D+00  E=-2.524056D-01
              MO Center=  4.6D-03, -1.4D-03,  2.9D-01, r^2= 8.2D-01
   Bfn.  Coefficient  Atom+Function         Bfn.  Coefficient  Atom+Function  
  ----- ------------  ---------------      ----- ------------  ---------------
     5      0.552664  1 N  pz                 9      0.464878  1 N  pz         
     6      0.342438  1 N  s                  2      0.165329  1 N  s          
     1     -0.076361  1 N  s                 17     -0.066903  2 H  s          
    19     -0.066912  3 H  s                 21     -0.066896  4 H  s          
    16     -0.065827  2 H  s                 18     -0.065834  3 H  s          

 Vector    6  Occ=0.000000D+00  E= 7.858433D-02
              MO Center= -5.8D-03,  1.9D-03, -3.8D-01, r^2= 3.1D+00
   Bfn.  Coefficient  Atom+Function         Bfn.  Coefficient  Atom+Function  
  ----- ------------  ---------------      ----- ------------  ---------------
     6      1.812003  1 N  s                 17     -0.919798  2 H  s          
    19     -0.919850  3 H  s                 21     -0.919902  4 H  s          
     9     -0.477495  1 N  pz                 5     -0.199845  1 N  pz         
     2      0.168322  1 N  s                  1     -0.127261  1 N  s          
    16     -0.056626  2 H  s                 18     -0.056642  3 H  s          

 Vector    7  Occ=0.000000D+00  E= 1.677614D-01
              MO Center=  5.2D-01,  1.9D-03, -3.4D-01, r^2= 2.6D+00
   Bfn.  Coefficient  Atom+Function         Bfn.  Coefficient  Atom+Function  
  ----- ------------  ---------------      ----- ------------  ---------------
    21      1.630607  4 H  s                  7     -1.000479  1 N  px         
    19     -0.874622  3 H  s                 17     -0.756288  2 H  s          
     3     -0.415259  1 N  px                 8      0.125950  1 N  py         
    20      0.105512  4 H  s                 18     -0.056594  3 H  s          
     4      0.052272  1 N  py                16     -0.048952  2 H  s          

 Vector    8  Occ=0.000000D+00  E= 1.677846D-01
              MO Center= -5.3D-01,  1.4D-03, -3.2D-01, r^2= 2.6D+00
   Bfn.  Coefficient  Atom+Function         Bfn.  Coefficient  Atom+Function  
  ----- ------------  ---------------      ----- ------------  ---------------
    17      1.446600  2 H  s                 19     -1.378180  3 H  s          
     8      1.000767  1 N  py                 4      0.415303  1 N  py         
     7      0.126002  1 N  px                16      0.093522  2 H  s          
    18     -0.089104  3 H  s                 21     -0.068290  4 H  s          
     3      0.052294  1 N  px                14     -0.027645  1 N  dyz        

 Vector    9  Occ=0.000000D+00  E= 6.831557D-01
              MO Center= -4.5D-02,  1.7D-02,  1.6D-01, r^2= 1.7D+00
   Bfn.  Coefficient  Atom+Function         Bfn.  Coefficient  Atom+Function  
  ----- ------------  ---------------      ----- ------------  ---------------
     7      1.145707  1 N  px                20     -0.768681  4 H  s          
    16      0.476117  2 H  s                  3     -0.354782  1 N  px         
    18      0.292926  3 H  s                 12      0.157494  1 N  dxz        
    13      0.117514  1 N  dyy               21      0.117716  4 H  s          
    10     -0.115066  1 N  dxx               11      0.072957  1 N  dxy        

 Vector   10  Occ=0.000000D+00  E= 6.832447D-01
              MO Center=  5.0D-02, -1.8D-02,  1.6D-01, r^2= 1.7D+00
   Bfn.  Coefficient  Atom+Function         Bfn.  Coefficient  Atom+Function  
  ----- ------------  ---------------      ----- ------------  ---------------
     8      1.146446  1 N  py                18     -0.718743  3 H  s          
    16      0.612852  2 H  s                  4     -0.354835  1 N  py         
    11      0.237488  1 N  dxy               14      0.149472  1 N  dyz        
    19      0.109435  3 H  s                 20      0.105724  4 H  s          
    17     -0.093209  2 H  s                  7     -0.061131  1 N  px         

 Vector   11  Occ=0.000000D+00  E= 7.218973D-01
              MO Center=  6.1D-03, -1.9D-03,  4.0D-01, r^2= 1.3D+00
   Bfn.  Coefficient  Atom+Function         Bfn.  Coefficient  Atom+Function  
  ----- ------------  ---------------      ----- ------------  ---------------
     9      1.118381  1 N  pz                 5     -0.982040  1 N  pz         
     2     -0.173582  1 N  s                 17      0.139488  2 H  s          
    19      0.139485  3 H  s                 21      0.139479  4 H  s          
     6     -0.050842  1 N  s                 15     -0.047712  1 N  dzz        
    10     -0.045891  1 N  dxx               13     -0.045960  1 N  dyy        

 Vector   12  Occ=0.000000D+00  E= 9.150694D-01
              MO Center=  2.6D-01, -7.6D-03, -1.0D-01, r^2= 1.8D+00
   Bfn.  Coefficient  Atom+Function         Bfn.  Coefficient  Atom+Function  
  ----- ------------  ---------------      ----- ------------  ---------------
    21     -1.474671  4 H  s                  7      1.405404  1 N  px         
     3     -0.983701  1 N  px                19      0.768944  3 H  s          
    17      0.700935  2 H  s                 20      0.551608  4 H  s          
    18     -0.285753  3 H  s                 16     -0.260364  2 H  s          
     8     -0.155226  1 N  py                12     -0.123205  1 N  dxz        

 Vector   13  Occ=0.000000D+00  E= 9.151225D-01
              MO Center= -2.6D-01,  9.7D-03, -9.4D-02, r^2= 1.8D+00
   Bfn.  Coefficient  Atom+Function         Bfn.  Coefficient  Atom+Function  
  ----- ------------  ---------------      ----- ------------  ---------------
     8      1.405588  1 N  py                17      1.294577  2 H  s          
    19     -1.256885  3 H  s                  4     -0.983866  1 N  py         
    16     -0.482566  2 H  s                 18      0.469809  3 H  s          
    11     -0.173142  1 N  dxy                7      0.155294  1 N  px         
    14     -0.117653  1 N  dyz                3     -0.108699  1 N  px         

 Vector   14  Occ=0.000000D+00  E= 9.222592D-01
              MO Center= -8.1D-03,  5.6D-04, -3.4D-01, r^2= 1.6D+00
   Bfn.  Coefficient  Atom+Function         Bfn.  Coefficient  Atom+Function  
  ----- ------------  ---------------      ----- ------------  ---------------
     6      1.121535  1 N  s                  2     -0.739395  1 N  s          
    16      0.699045  2 H  s                 18      0.697737  3 H  s          
    20      0.696345  4 H  s                 17     -0.596351  2 H  s          
    19     -0.593116  3 H  s                 21     -0.588680  4 H  s          
    15     -0.249057  1 N  dzz                5      0.240553  1 N  pz         

 Vector   15  Occ=0.000000D+00  E= 1.156115D+00
              MO Center= -3.8D-03,  1.2D-03, -2.4D-01, r^2= 1.7D+00
   Bfn.  Coefficient  Atom+Function         Bfn.  Coefficient  Atom+Function  
  ----- ------------  ---------------      ----- ------------  ---------------
     6      4.080269  1 N  s                  2     -1.527598  1 N  s          
     9     -0.848558  1 N  pz                17     -0.781719  2 H  s          
    19     -0.781662  3 H  s                 21     -0.781519  4 H  s          
    10     -0.402059  1 N  dxx               13     -0.402224  1 N  dyy        
    16     -0.369116  2 H  s                 18     -0.369065  3 H  s          

 Vector   16  Occ=0.000000D+00  E= 1.675430D+00
              MO Center= -1.1D-02,  3.7D-03,  1.4D-01, r^2= 6.1D-01
   Bfn.  Coefficient  Atom+Function         Bfn.  Coefficient  Atom+Function  
  ----- ------------  ---------------      ----- ------------  ---------------
    14      1.323479  1 N  dyz               11     -1.067271  1 N  dxy        
    10     -0.163725  1 N  dxx               13      0.156200  1 N  dyy        
    12     -0.053135  1 N  dxz                8      0.042482  1 N  py         
    18     -0.032388  3 H  s                 16      0.028006  2 H  s          

 Vector   17  Occ=0.000000D+00  E= 1.675466D+00
              MO Center=  1.5D-02, -5.0D-03,  1.4D-01, r^2= 6.1D-01
   Bfn.  Coefficient  Atom+Function         Bfn.  Coefficient  Atom+Function  
  ----- ------------  ---------------      ----- ------------  ---------------
    12      1.285744  1 N  dxz               10      0.564630  1 N  dxx        
    13     -0.544041  1 N  dyy               11     -0.331131  1 N  dxy        
    14      0.052942  1 N  dyz                7      0.042472  1 N  px         
    20     -0.034830  4 H  s          

 Vector   18  Occ=0.000000D+00  E= 1.940514D+00
              MO Center=  2.0D-03, -6.1D-04,  1.3D-01, r^2= 8.2D-01
   Bfn.  Coefficient  Atom+Function         Bfn.  Coefficient  Atom+Function  
  ----- ------------  ---------------      ----- ------------  ---------------
     6      1.543491  1 N  s                 15     -1.058940  1 N  dzz        
     2     -0.472668  1 N  s                  9     -0.466827  1 N  pz         
    16     -0.463326  2 H  s                 18     -0.463331  3 H  s          
    20     -0.463397  4 H  s                 10      0.440988  1 N  dxx        
    13      0.441784  1 N  dyy               17     -0.210907  2 H  s          

 Vector   19  Occ=0.000000D+00  E= 2.402925D+00
              MO Center=  3.8D-02,  8.3D-03,  8.6D-02, r^2= 8.9D-01
   Bfn.  Coefficient  Atom+Function         Bfn.  Coefficient  Atom+Function  
  ----- ------------  ---------------      ----- ------------  ---------------
    12      1.350742  1 N  dxz               20      0.900466  4 H  s          
    13      0.788658  1 N  dyy               10     -0.765895  1 N  dxx        
     7     -0.635108  1 N  px                18     -0.575820  3 H  s          
    16     -0.324864  2 H  s                 14     -0.320928  1 N  dyz        
     8      0.157455  1 N  py                 3     -0.062515  1 N  px         

 Vector   20  Occ=0.000000D+00  E= 2.402985D+00
              MO Center= -3.5D-02, -9.1D-03,  8.8D-02, r^2= 8.9D-01
   Bfn.  Coefficient  Atom+Function         Bfn.  Coefficient  Atom+Function  
  ----- ------------  ---------------      ----- ------------  ---------------
    11      1.592875  1 N  dxy               14      1.301889  1 N  dyz        
    16     -0.852461  2 H  s                 18      0.707513  3 H  s          
     8     -0.635591  1 N  py                12      0.336305  1 N  dxz        
     7     -0.157384  1 N  px                20      0.144849  4 H  s          
     4     -0.062551  1 N  py                17      0.030615  2 H  s          

 Vector   21  Occ=0.000000D+00  E= 3.668308D+00
              MO Center=  1.8D-03, -5.5D-04,  1.2D-01, r^2= 9.9D-01
   Bfn.  Coefficient  Atom+Function         Bfn.  Coefficient  Atom+Function  
  ----- ------------  ---------------      ----- ------------  ---------------
     6      3.201843  1 N  s                 15     -1.527043  1 N  dzz        
    10     -1.501562  1 N  dxx               13     -1.501611  1 N  dyy        
     2      1.160615  1 N  s                 17     -0.565387  2 H  s          
    19     -0.565370  3 H  s                 21     -0.565281  4 H  s          
     1     -0.466759  1 N  s                  9     -0.334822  1 N  pz         


     ---------------------------------------------
      Total Density - Mulliken Population Analysis
     ---------------------------------------------

    Atom       Charge   Shell Charges
 -----------   ------   -------------------------------------------------------
    1 N    7     7.89   1.99  0.79  2.49  0.93  1.65  0.03
    2 H    1     0.70   0.51  0.20
    3 H    1     0.70   0.51  0.20
    4 H    1     0.70   0.51  0.20

     -------------------------------------------
      Total Density - Lowdin Population Analysis
     -------------------------------------------

    Atom       Charge   Shell Charges
 -----------   ------   -------------------------------------------------------
    1 N    7     7.75   1.98  0.54  2.32  0.44  1.91  0.56
    2 H    1     0.75   0.47  0.28
    3 H    1     0.75   0.47  0.28
    4 H    1     0.75   0.47  0.28

          -------------
          Dipole Moment
          -------------

 Center of charge (in au) is the expansion point
         X =      -0.0000539 Y =       0.0000407 Z =       0.0031236

   Dipole moment        0.7523079514 A.U.
             DMX       -0.0117960666 DMXEFC        0.0000000000
             DMY        0.0037124049 DMYEFC        0.0000000000
             DMZ       -0.7522063045 DMZEFC        0.0000000000
   -EFC- dipole         0.0000000000 A.U.
   Total dipole         0.7523079514 A.U.

   Dipole moment        1.9121905317 Debye(s)
             DMX       -0.0299828372 DMXEFC        0.0000000000
             DMY        0.0094360632 DMYEFC        0.0000000000
             DMZ       -1.9119321692 DMZEFC        0.0000000000
   -EFC- dipole         0.0000000000 DEBYE(S)
   Total dipole         1.9121905317 DEBYE(S)

 1 a.u. = 2.541766 Debyes 


                                NWChem Input Module
                                -------------------




                                     CITATION
                                     --------
                Please cite the following reference when publishing
                           results obtained with NWChem:

                 M. Valiev, E.J. Bylaska, N. Govind, K. Kowalski,
              T.P. Straatsma, H.J.J. van Dam, D. Wang, J. Nieplocha,
                        E. Apra, T.L. Windus, W.A. de Jong
                 "NWChem: a comprehensive and scalable open-source
                  solution for large scale molecular simulations"
                      Comput. Phys. Commun. 181, 1477 (2010)
                           doi:10.1016/j.cpc.2010.04.018

                                      AUTHORS
                                      -------
          E. Apra, E. J. Bylaska, W. A. de Jong, N. Govind, K. Kowalski,
       T. P. Straatsma, M. Valiev, H. J. J. van Dam, D. Wang, T. L. Windus,
        J. Hammond, J. Autschbach, K. Bhaskaran-Nair, J. Brabec, K. Lopata,
    S. A. Fischer, S. Krishnamoorthy, M. Jacquelin, W. Ma, M. Klemm, O. Villa,
      Y. Chen, V. Anisimov, F. Aquino, S. Hirata, M. T. Hackler, V. Konjkov,
            D. Mejia-Rodriguez, T. Risthaus, M. Malagoli, A. Marenich,
   A. Otero-de-la-Roza, J. Mullin, P. Nichols, R. Peverati, J. Pittner, Y. Zhao,
        P.-D. Fan, A. Fonari, M. J. Williamson, R. J. Harrison, J. R. Rehr,
      M. Dupuis, D. Silverstein, D. M. A. Smith, J. Nieplocha, V. Tipparaju,
    M. Krishnan, B. E. Van Kuiken, A. Vazquez-Mayagoitia, L. Jensen, M. Swart,
      Q. Wu, T. Van Voorhis, A. A. Auer, M. Nooijen, L. D. Crosby, E. Brown,
      G. Cisneros, G. I. Fann, H. Fruchtl, J. Garza, K. Hirao, R. A. Kendall,
      J. A. Nichols, K. Tsemekhman, K. Wolinski, J. Anchell, D. E. Bernholdt,
      P. Borowski, T. Clark, D. Clerc, H. Dachsel, M. J. O. Deegan, K. Dyall,
    D. Elwood, E. Glendening, M. Gutowski, A. C. Hess, J. Jaffe, B. G. Johnson,
     J. Ju, R. Kobayashi, R. Kutteh, Z. Lin, R. Littlefield, X. Long, B. Meng,
      T. Nakajima, S. Niu, L. Pollack, M. Rosing, K. Glaesemann, G. Sandrone,
      M. Stave, H. Taylor, G. Thomas, J. H. van Lenthe, A. T. Wong, Z. Zhang.

 Total times  cpu:        3.8s     wall:        7.5s
