--------------------------------------------------------------------------
[[4672,1],0]: A high-performance Open MPI point-to-point messaging module
was unable to find any relevant network interfaces:

Module: OpenFabrics (openib)
  Host: 2274251cca31

Another transport will be used instead, although this may result in
lower performance.
--------------------------------------------------------------------------
 argument  1 = cpd00094.nw



============================== echo of input deck ==============================
title "cpd00094"
start cpd00094

memory global 1600 mb heap 100 mb stack 600 mb

permanent_dir /kb/module/work/tmp/simulation/cpd00094/dft
#scratch_dir /scratch

echo
print low

charge 0
geometry noautoz noautosym
load /kb/module/work/tmp/simulation/cpd00094/dft/cpd00094.xyz
end
basis
* library 6-31G*
end

driver
 maxiter 50
xyz cpd00094_geom
end

set lindep:n_dep 0

dft
  maxiter 100
  xc b3lyp
  mulliken
  print "mulliken ao"
  print "final vectors analysis"
end

task dft optimize ignore
property
 dipole
end

task dft property
================================================================================


                                         
                                         


              Northwest Computational Chemistry Package (NWChem) 6.8
              ------------------------------------------------------


                    Environmental Molecular Sciences Laboratory
                       Pacific Northwest National Laboratory
                                Richland, WA 99352

                              Copyright (c) 1994-2017
                       Pacific Northwest National Laboratory
                            Battelle Memorial Institute

             NWChem is an open-source computational chemistry package
                        distributed under the terms of the
                      Educational Community License (ECL) 2.0
             A copy of the license is included with this distribution
                              in the LICENSE.TXT file

                                  ACKNOWLEDGMENT
                                  --------------

            This software and its documentation were developed at the
            EMSL at Pacific Northwest National Laboratory, a multiprogram
            national laboratory, operated for the U.S. Department of Energy
            by Battelle under Contract Number DE-AC05-76RL01830. Support
            for this work was provided by the Department of Energy Office
            of Biological and Environmental Research, Office of Basic
            Energy Sciences, and the Office of Advanced Scientific Computing.


           Job information
           ---------------

    hostname        = 2274251cca31
    program         = nwchem
    date            = Sun Mar  8 23:29:47 2020

    compiled        = Sat_Mar_07_21:45:49_2020
    source          = /codes/nwchem-6.8.1
    nwchem branch   = 6.8.1
    nwchem revision = v6.8-133-ge032219
    ga revision     = 5.6.5
    use scalapack   = F
    input           = cpd00094.nw
    prefix          = cpd00094.
    data base       = /kb/module/work/tmp/simulation/cpd00094/dft/cpd00094.db
    status          = startup
    nproc           =        2
    time left       =     -1s



           Memory information
           ------------------

    heap     =   13107194 doubles =    100.0 Mbytes
    stack    =   78643199 doubles =    600.0 Mbytes
    global   =  209715200 doubles =   1600.0 Mbytes (distinct from heap & stack)
    total    =  301465593 doubles =   2300.0 Mbytes
    verify   = yes
    hardfail = no 


           Directory information
           ---------------------

  0 permanent = /kb/module/work/tmp/simulation/cpd00094/dft
  0 scratch   = .




                                NWChem Input Module
                                -------------------


                                     cpd00094
                                     --------

 Scaling coordinates for geometry "geometry" by  1.889725989
 (inverse scale =  0.529177249)



                             Geometry "geometry" -> ""
                             -------------------------

 Output coordinates in angstroms (scale by  1.889725989 to convert to a.u.)

  No.       Tag          Charge          X              Y              Z
 ---- ---------------- ---------- -------------- -------------- --------------
    1 O                    8.0000     0.00027000     0.11934000     0.00000000
    2 H                    1.0000     0.76237000    -0.47916000     0.00000000
    3 H                    1.0000    -0.76453000    -0.47556000     0.00000000

      Atomic Mass 
      ----------- 

      O                 15.994910
      H                  1.007825


 Effective nuclear repulsion energy (a.u.)       9.0845022553

            Nuclear Dipole moment (a.u.) 
            ----------------------------
        X                 Y               Z
 ---------------- ---------------- ----------------
    -0.0000000000     0.0000000000     0.0000000000


            XYZ format geometry
            -------------------
     3
 geometry
 O                     0.00027000     0.11934000     0.00000000
 H                     0.76237000    -0.47916000     0.00000000
 H                    -0.76453000    -0.47556000     0.00000000

 ==============================================================================
                                internuclear distances
 ------------------------------------------------------------------------------
       center one      |      center two      | atomic units |  angstroms
 ------------------------------------------------------------------------------
    2 H                |   1 O                |     1.83118  |     0.96902
    3 H                |   1 O                |     1.83101  |     0.96893
 ------------------------------------------------------------------------------
                         number of included internuclear distances:          2
 ==============================================================================



 ==============================================================================
                                 internuclear angles
 ------------------------------------------------------------------------------
        center 1       |       center 2       |       center 3       |  degrees
 ------------------------------------------------------------------------------
    2 H                |   1 O                |   3 H                |   103.98
 ------------------------------------------------------------------------------
                            number of included internuclear angles:          1
 ==============================================================================



  library name resolved from: environment
  library file name is: </codes/nwchem-6.8.1/data/libraries/>
  


 Summary of "ao basis" -> "" (cartesian)
 ------------------------------------------------------------------------------
       Tag                 Description            Shells   Functions and Types
 ---------------- ------------------------------  ------  ---------------------
 *                           6-31G*                   on all atoms 




                           NWChem Geometry Optimization
                           ----------------------------




                                     cpd00094


 maximum gradient threshold         (gmax) =   0.000450
 rms gradient threshold             (grms) =   0.000300
 maximum cartesian step threshold   (xmax) =   0.001800
 rms cartesian step threshold       (xrms) =   0.001200
 fixed trust radius                (trust) =   0.300000
 maximum step size to saddle      (sadstp) =   0.100000
 energy precision                  (eprec) =   5.0D-06
 maximum number of steps          (nptopt) =   50
 initial hessian option           (inhess) =    0
 line search option               (linopt) =    1
 hessian update option            (modupd) =    1
 saddle point option              (modsad) =    0
 initial eigen-mode to follow     (moddir) =    0
 initial variable to follow       (vardir) =    0
 follow first negative mode     (firstneg) =    T
 apply conjugacy                    (opcg) =    F
 source of zmatrix                         =           


          -------------------
          Energy Minimization
          -------------------


 Using diagonal initial Hessian 

          --------
          Step   0
          --------

                                 NWChem DFT Module
                                 -----------------


                                     cpd00094


                      Basis "ao basis" -> "ao basis" (cartesian)
                      -----
  O (Oxygen)
  ----------
            Exponent  Coefficients 
       -------------- ---------------------------------------------------------
  1 S  5.48467170E+03  0.001831
  1 S  8.25234950E+02  0.013950
  1 S  1.88046960E+02  0.068445
  1 S  5.29645000E+01  0.232714
  1 S  1.68975700E+01  0.470193
  1 S  5.79963530E+00  0.358521

  2 S  1.55396160E+01 -0.110778
  2 S  3.59993360E+00 -0.148026
  2 S  1.01376180E+00  1.130767

  3 P  1.55396160E+01  0.070874
  3 P  3.59993360E+00  0.339753
  3 P  1.01376180E+00  0.727159

  4 S  2.70005800E-01  1.000000

  5 P  2.70005800E-01  1.000000

  6 D  8.00000000E-01  1.000000

  H (Hydrogen)
  ------------
            Exponent  Coefficients 
       -------------- ---------------------------------------------------------
  1 S  1.87311370E+01  0.033495
  1 S  2.82539370E+00  0.234727
  1 S  6.40121700E-01  0.813757

  2 S  1.61277800E-01  1.000000



 Summary of "ao basis" -> "ao basis" (cartesian)
 ------------------------------------------------------------------------------
       Tag                 Description            Shells   Functions and Types
 ---------------- ------------------------------  ------  ---------------------
 O                           6-31G*                  6       15   3s2p1d
 H                           6-31G*                  2        2   2s



  Caching 1-el integrals 
   Time after variat. SCF:      0.3

     ---------------------------------------------
      Total Density - Mulliken Population Analysis
     ---------------------------------------------

    Atom       Charge   Shell Charges
 -----------   ------   -------------------------------------------------------
    1 O    8     9.06   2.00  0.94  3.12  0.86  2.08  0.06
    2 H    1     0.47   0.36  0.11
    3 H    1     0.47   0.36  0.11
   Time prior to 1st pass:      0.3


         Total DFT energy =      -76.408951379692
      One electron energy =     -122.931566560482
           Coulomb energy =       46.781166819662
    Exchange-Corr. energy =       -9.343053894179
 Nuclear repulsion energy =        9.084502255306

 Numeric. integr. density =       10.000001178623

     Total iterative time =      0.6s



                       DFT Final Molecular Orbital Analysis
                       ------------------------------------

 Vector    1  Occ=2.000000D+00  E=-1.913804D+01
              MO Center=  2.7D-04,  1.2D-01, -3.3D-13, r^2= 1.5D-02
   Bfn.  Coefficient  Atom+Function         Bfn.  Coefficient  Atom+Function  
  ----- ------------  ---------------      ----- ------------  ---------------
     1      0.992860  1 O  s                  2      0.026223  1 O  s          

 Vector    2  Occ=2.000000D+00  E=-9.974826D-01
              MO Center= -2.4D-04, -8.7D-02, -1.3D-10, r^2= 5.1D-01
   Bfn.  Coefficient  Atom+Function         Bfn.  Coefficient  Atom+Function  
  ----- ------------  ---------------      ----- ------------  ---------------
     2      0.469320  1 O  s                  6      0.439850  1 O  s          
     1     -0.209564  1 O  s                 16      0.138973  2 H  s          
    18      0.139006  3 H  s                  4     -0.127254  1 O  py         
     8     -0.060509  1 O  py         

 Vector    3  Occ=2.000000D+00  E=-5.175948D-01
              MO Center= -2.1D-04, -1.1D-01, -2.1D-11, r^2= 7.9D-01
   Bfn.  Coefficient  Atom+Function         Bfn.  Coefficient  Atom+Function  
  ----- ------------  ---------------      ----- ------------  ---------------
     3      0.517224  1 O  px                 7      0.269509  1 O  px         
    16      0.237576  2 H  s                 18     -0.237581  3 H  s          
    17      0.141646  2 H  s                 19     -0.141636  3 H  s          
    11     -0.071301  1 O  dxy        

 Vector    4  Occ=2.000000D+00  E=-3.715266D-01
              MO Center=  4.7D-04,  2.0D-01, -1.7D-09, r^2= 7.0D-01
   Bfn.  Coefficient  Atom+Function         Bfn.  Coefficient  Atom+Function  
  ----- ------------  ---------------      ----- ------------  ---------------
     4      0.552221  1 O  py                 6      0.409583  1 O  s          
     8      0.372866  1 O  py                 2      0.176734  1 O  s          
    16     -0.143479  2 H  s                 18     -0.143464  3 H  s          
    17     -0.114269  2 H  s                 19     -0.114246  3 H  s          
     1     -0.087857  1 O  s                 13     -0.052307  1 O  dyy        

 Vector    5  Occ=2.000000D+00  E=-2.910587D-01
              MO Center=  2.2D-04,  9.9D-02,  1.5D-09, r^2= 6.0D-01
   Bfn.  Coefficient  Atom+Function         Bfn.  Coefficient  Atom+Function  
  ----- ------------  ---------------      ----- ------------  ---------------
     5      0.644548  1 O  pz                 9      0.506084  1 O  pz         
    14     -0.061208  1 O  dyz        

 Vector    6  Occ=0.000000D+00  E= 6.257564D-02
              MO Center= -1.1D-03, -6.2D-01,  1.5D-09, r^2= 2.4D+00
   Bfn.  Coefficient  Atom+Function         Bfn.  Coefficient  Atom+Function  
  ----- ------------  ---------------      ----- ------------  ---------------
     6      1.258150  1 O  s                 17     -0.969264  2 H  s          
    19     -0.968972  3 H  s                  8     -0.476357  1 O  py         
     4     -0.280239  1 O  py                 2      0.119594  1 O  s          
     1     -0.100778  1 O  s                 16     -0.096775  2 H  s          
    18     -0.096712  3 H  s                 15     -0.057999  1 O  dzz        

 Vector    7  Occ=0.000000D+00  E= 1.481154D-01
              MO Center= -1.6D-03, -5.7D-01, -2.5D-12, r^2= 2.5D+00
   Bfn.  Coefficient  Atom+Function         Bfn.  Coefficient  Atom+Function  
  ----- ------------  ---------------      ----- ------------  ---------------
    17      1.276465  2 H  s                 19     -1.276918  3 H  s          
     7     -0.759446  1 O  px                 3     -0.413464  1 O  px         
    16      0.106958  2 H  s                 18     -0.106953  3 H  s          
    11      0.032001  1 O  dxy        

 Vector    8  Occ=0.000000D+00  E= 7.735727D-01
              MO Center=  2.3D-04, -1.5D-01,  8.8D-13, r^2= 1.6D+00
   Bfn.  Coefficient  Atom+Function         Bfn.  Coefficient  Atom+Function  
  ----- ------------  ---------------      ----- ------------  ---------------
    16      0.840862  2 H  s                 18     -0.840222  3 H  s          
    17     -0.654857  2 H  s                 19      0.654218  3 H  s          
     7     -0.429408  1 O  px                11     -0.340465  1 O  dxy        
     3     -0.174540  1 O  px         

 Vector    9  Occ=0.000000D+00  E= 8.597802D-01
              MO Center= -9.9D-04, -2.3D-01,  3.9D-08, r^2= 1.3D+00
   Bfn.  Coefficient  Atom+Function         Bfn.  Coefficient  Atom+Function  
  ----- ------------  ---------------      ----- ------------  ---------------
    16      0.722813  2 H  s                 18      0.723514  3 H  s          
     4      0.692612  1 O  py                17     -0.558749  2 H  s          
    19     -0.559015  3 H  s                  8     -0.361627  1 O  py         
     6      0.157692  1 O  s                 10      0.152178  1 O  dxx        
     2     -0.150212  1 O  s                 15     -0.125080  1 O  dzz        

 Vector   10  Occ=0.000000D+00  E= 8.908627D-01
              MO Center=  2.6D-04,  1.2D-01,  2.7D-07, r^2= 1.1D+00
   Bfn.  Coefficient  Atom+Function         Bfn.  Coefficient  Atom+Function  
  ----- ------------  ---------------      ----- ------------  ---------------
     9     -1.038609  1 O  pz                 5      0.959455  1 O  pz         
    14      0.028294  1 O  dyz        

 Vector   11  Occ=0.000000D+00  E= 8.947800D-01
              MO Center=  8.8D-04,  3.4D-01, -3.2D-07, r^2= 1.4D+00
   Bfn.  Coefficient  Atom+Function         Bfn.  Coefficient  Atom+Function  
  ----- ------------  ---------------      ----- ------------  ---------------
     6      1.395560  1 O  s                  8      0.838918  1 O  py         
     2     -0.827467  1 O  s                  4     -0.576763  1 O  py         
    16      0.451856  2 H  s                 18      0.452004  3 H  s          
    17     -0.359378  2 H  s                 19     -0.359285  3 H  s          
    15     -0.322860  1 O  dzz               13     -0.276162  1 O  dyy        

 Vector   12  Occ=0.000000D+00  E= 1.066032D+00
              MO Center=  1.4D-04,  1.0D-01,  6.6D-12, r^2= 1.5D+00
   Bfn.  Coefficient  Atom+Function         Bfn.  Coefficient  Atom+Function  
  ----- ------------  ---------------      ----- ------------  ---------------
     7      1.630375  1 O  px                 3     -0.989043  1 O  px         
    17     -0.925015  2 H  s                 19      0.925211  3 H  s          
    11      0.029563  1 O  dxy        

 Vector   13  Occ=0.000000D+00  E= 1.192190D+00
              MO Center= -9.1D-04, -3.7D-01,  1.7D-09, r^2= 1.4D+00
   Bfn.  Coefficient  Atom+Function         Bfn.  Coefficient  Atom+Function  
  ----- ------------  ---------------      ----- ------------  ---------------
     6      3.600975  1 O  s                  2     -1.461063  1 O  s          
     8     -1.100284  1 O  py                17     -0.775625  2 H  s          
    19     -0.775925  3 H  s                 10     -0.657512  1 O  dxx        
     4      0.402720  1 O  py                13     -0.392756  1 O  dyy        
    16     -0.347045  2 H  s                 18     -0.347018  3 H  s          

 Vector   14  Occ=0.000000D+00  E= 1.730133D+00
              MO Center=  3.9D-04,  1.7D-01,  3.7D-11, r^2= 6.2D-01
   Bfn.  Coefficient  Atom+Function         Bfn.  Coefficient  Atom+Function  
  ----- ------------  ---------------      ----- ------------  ---------------
    13      1.007969  1 O  dyy               10     -0.590728  1 O  dxx        
    15     -0.349901  1 O  dzz                6     -0.253118  1 O  s          
     8      0.143475  1 O  py                 2      0.090354  1 O  s          
    16      0.082304  2 H  s                 18      0.082299  3 H  s          
    17      0.042172  2 H  s                 19      0.042186  3 H  s          

 Vector   15  Occ=0.000000D+00  E= 1.746183D+00
              MO Center=  2.8D-04,  1.2D-01,  7.6D-12, r^2= 6.1D-01
   Bfn.  Coefficient  Atom+Function         Bfn.  Coefficient  Atom+Function  
  ----- ------------  ---------------      ----- ------------  ---------------
    12      1.732047  1 O  dxz        

 Vector   16  Occ=0.000000D+00  E= 1.780237D+00
              MO Center=  3.2D-04,  1.4D-01, -3.9D-13, r^2= 6.1D-01
   Bfn.  Coefficient  Atom+Function         Bfn.  Coefficient  Atom+Function  
  ----- ------------  ---------------      ----- ------------  ---------------
    14      1.730734  1 O  dyz                9      0.034877  1 O  pz         

 Vector   17  Occ=0.000000D+00  E= 2.280364D+00
              MO Center=  6.6D-05,  3.2D-03,  8.0D-11, r^2= 8.3D-01
   Bfn.  Coefficient  Atom+Function         Bfn.  Coefficient  Atom+Function  
  ----- ------------  ---------------      ----- ------------  ---------------
     6      1.533845  1 O  s                 15     -1.128772  1 O  dzz        
    16     -0.811057  2 H  s                 18     -0.810771  3 H  s          
    10      0.741907  1 O  dxx                8     -0.734637  1 O  py         
     2     -0.513481  1 O  s                 17     -0.140143  2 H  s          
    19     -0.140257  3 H  s                 13      0.063513  1 O  dyy        

 Vector   18  Occ=0.000000D+00  E= 2.577192D+00
              MO Center=  9.6D-05,  6.3D-02,  8.7D-12, r^2= 8.7D-01
   Bfn.  Coefficient  Atom+Function         Bfn.  Coefficient  Atom+Function  
  ----- ------------  ---------------      ----- ------------  ---------------
    11      2.202356  1 O  dxy               16      0.923702  2 H  s          
    18     -0.924271  3 H  s                  7     -0.846439  1 O  px         
    17     -0.048835  2 H  s                 19      0.048700  3 H  s          
     3      0.037738  1 O  px         

 Vector   19  Occ=0.000000D+00  E= 3.552363D+00
              MO Center=  2.7D-04,  1.2D-01, -1.2D-10, r^2= 1.0D+00
   Bfn.  Coefficient  Atom+Function         Bfn.  Coefficient  Atom+Function  
  ----- ------------  ---------------      ----- ------------  ---------------
     6      3.690002  1 O  s                 15     -1.578678  1 O  dzz        
    13     -1.550024  1 O  dyy               10     -1.526249  1 O  dxx        
    17     -0.554890  2 H  s                 19     -0.554999  3 H  s          
     1     -0.467976  1 O  s                  8     -0.332758  1 O  py         
     2      0.286606  1 O  s                  4      0.116263  1 O  py         


     ---------------------------------------------
      Total Density - Mulliken Population Analysis
     ---------------------------------------------

    Atom       Charge   Shell Charges
 -----------   ------   -------------------------------------------------------
    1 O    8     8.77   1.99  0.90  2.92  0.98  1.94  0.04
    2 H    1     0.61   0.48  0.14
    3 H    1     0.61   0.48  0.14

     -------------------------------------------
      Total Density - Lowdin Population Analysis
     -------------------------------------------

    Atom       Charge   Shell Charges
 -----------   ------   -------------------------------------------------------
    1 O    8     8.67   1.98  0.72  2.78  0.50  2.13  0.57
    2 H    1     0.66   0.44  0.22
    3 H    1     0.66   0.44  0.22


                         DFT ENERGY GRADIENTS

    atom               coordinates                        gradient
                 x          y          z           x          y          z
   1 O       0.000510   0.225520   0.000000   -0.000071  -0.000396   0.000000
   2 H       1.440670  -0.905481   0.000000    0.000703   0.000169  -0.000000
   3 H      -1.444752  -0.898678   0.000000   -0.000633   0.000227   0.000000


@ Step       Energy      Delta E   Gmax     Grms     Xrms     Xmax   Walltime
@ ---- ---------------- -------- -------- -------- -------- -------- --------
@    0     -76.40895138  0.0D+00  0.00070  0.00036  0.00000  0.00000      1.8
                                                                    


                                 NWChem DFT Module
                                 -----------------


                                     cpd00094



  Caching 1-el integrals 
   Time after variat. SCF:      1.8

     ---------------------------------------------
      Total Density - Mulliken Population Analysis
     ---------------------------------------------

    Atom       Charge   Shell Charges
 -----------   ------   -------------------------------------------------------
    1 O    8     8.77   1.99  0.90  2.92  0.98  1.94  0.04
    2 H    1     0.61   0.48  0.14
    3 H    1     0.61   0.48  0.14
   Time prior to 1st pass:      1.8


         Total DFT energy =      -76.408950971456
      One electron energy =     -122.926831563778
           Coulomb energy =       46.777211325875
    Exchange-Corr. energy =       -9.342710768225
 Nuclear repulsion energy =        9.083380034673

 Numeric. integr. density =       10.000000949868

     Total iterative time =      0.6s



                       DFT Final Molecular Orbital Analysis
                       ------------------------------------

 Vector    1  Occ=2.000000D+00  E=-1.913845D+01
              MO Center=  3.2D-04,  1.2D-01, -3.3D-13, r^2= 1.5D-02
   Bfn.  Coefficient  Atom+Function         Bfn.  Coefficient  Atom+Function  
  ----- ------------  ---------------      ----- ------------  ---------------
     1      0.992861  1 O  s                  2      0.026225  1 O  s          

 Vector    2  Occ=2.000000D+00  E=-9.979649D-01
              MO Center= -1.5D-04, -8.6D-02, -1.3D-10, r^2= 5.1D-01
   Bfn.  Coefficient  Atom+Function         Bfn.  Coefficient  Atom+Function  
  ----- ------------  ---------------      ----- ------------  ---------------
     2      0.469135  1 O  s                  6      0.439550  1 O  s          
     1     -0.209461  1 O  s                 16      0.139128  2 H  s          
    18      0.139112  3 H  s                  4     -0.127981  1 O  py         
     8     -0.060860  1 O  py         

 Vector    3  Occ=2.000000D+00  E=-5.163266D-01
              MO Center= -2.4D-04, -1.1D-01, -2.1D-11, r^2= 7.9D-01
   Bfn.  Coefficient  Atom+Function         Bfn.  Coefficient  Atom+Function  
  ----- ------------  ---------------      ----- ------------  ---------------
     3      0.517547  1 O  px                 7      0.270171  1 O  px         
    16      0.237215  2 H  s                 18     -0.237212  3 H  s          
    17      0.142470  2 H  s                 19     -0.142475  3 H  s          
    11     -0.071651  1 O  dxy        

 Vector    4  Occ=2.000000D+00  E=-3.729147D-01
              MO Center=  5.0D-04,  2.0D-01, -1.7D-09, r^2= 7.0D-01
   Bfn.  Coefficient  Atom+Function         Bfn.  Coefficient  Atom+Function  
  ----- ------------  ---------------      ----- ------------  ---------------
     4      0.551275  1 O  py                 6      0.411234  1 O  s          
     8      0.371312  1 O  py                 2      0.177779  1 O  s          
    16     -0.144097  2 H  s                 18     -0.144105  3 H  s          
    17     -0.114530  2 H  s                 19     -0.114542  3 H  s          
     1     -0.088337  1 O  s                 13     -0.052508  1 O  dyy        

 Vector    5  Occ=2.000000D+00  E=-2.912739D-01
              MO Center=  2.8D-04,  1.0D-01,  1.4D-09, r^2= 6.0D-01
   Bfn.  Coefficient  Atom+Function         Bfn.  Coefficient  Atom+Function  
  ----- ------------  ---------------      ----- ------------  ---------------
     5      0.644634  1 O  pz                 9      0.505984  1 O  pz         
    14     -0.061486  1 O  dyz        

 Vector    6  Occ=0.000000D+00  E= 6.239573D-02
              MO Center= -1.6D-03, -6.2D-01,  1.5D-09, r^2= 2.4D+00
   Bfn.  Coefficient  Atom+Function         Bfn.  Coefficient  Atom+Function  
  ----- ------------  ---------------      ----- ------------  ---------------
     6      1.255588  1 O  s                 17     -0.968050  2 H  s          
    19     -0.968193  3 H  s                  8     -0.478775  1 O  py         
     4     -0.281548  1 O  py                 2      0.119071  1 O  s          
     1     -0.100457  1 O  s                 16     -0.096042  2 H  s          
    18     -0.096073  3 H  s                 15     -0.057998  1 O  dzz        

 Vector    7  Occ=0.000000D+00  E= 1.478297D-01
              MO Center= -1.1D-03, -5.7D-01, -2.2D-12, r^2= 2.5D+00
   Bfn.  Coefficient  Atom+Function         Bfn.  Coefficient  Atom+Function  
  ----- ------------  ---------------      ----- ------------  ---------------
    17      1.277236  2 H  s                 19     -1.277013  3 H  s          
     7     -0.757666  1 O  px                 3     -0.413726  1 O  px         
    16      0.108068  2 H  s                 18     -0.108070  3 H  s          
    11      0.031772  1 O  dxy        

 Vector    8  Occ=0.000000D+00  E= 7.709035D-01
              MO Center= -6.1D-04, -1.5D-01, -1.4D-12, r^2= 1.6D+00
   Bfn.  Coefficient  Atom+Function         Bfn.  Coefficient  Atom+Function  
  ----- ------------  ---------------      ----- ------------  ---------------
    16      0.839631  2 H  s                 18     -0.839930  3 H  s          
    17     -0.658480  2 H  s                 19      0.658784  3 H  s          
     7     -0.428237  1 O  px                11     -0.338537  1 O  dxy        
     3     -0.170445  1 O  px         

 Vector    9  Occ=0.000000D+00  E= 8.613264D-01
              MO Center= -2.3D-04, -2.0D-01,  4.5D-08, r^2= 1.3D+00
   Bfn.  Coefficient  Atom+Function         Bfn.  Coefficient  Atom+Function  
  ----- ------------  ---------------      ----- ------------  ---------------
     4      0.718677  1 O  py                16      0.703264  2 H  s          
    18      0.702938  3 H  s                 17     -0.548260  2 H  s          
    19     -0.548140  3 H  s                  8     -0.399542  1 O  py         
    10      0.153468  1 O  dxx                2     -0.125800  1 O  s          
     6      0.122881  1 O  s                 15     -0.115248  1 O  dzz        

 Vector   10  Occ=0.000000D+00  E= 8.906946D-01
              MO Center=  3.1D-04,  1.2D-01,  2.0D-07, r^2= 1.1D+00
   Bfn.  Coefficient  Atom+Function         Bfn.  Coefficient  Atom+Function  
  ----- ------------  ---------------      ----- ------------  ---------------
     9     -1.038650  1 O  pz                 5      0.959397  1 O  pz         
    14      0.028551  1 O  dyz        

 Vector   11  Occ=0.000000D+00  E= 8.953574D-01
              MO Center=  7.2D-04,  3.1D-01, -2.5D-07, r^2= 1.5D+00
   Bfn.  Coefficient  Atom+Function         Bfn.  Coefficient  Atom+Function  
  ----- ------------  ---------------      ----- ------------  ---------------
     6      1.426979  1 O  s                  2     -0.844737  1 O  s          
     8      0.816931  1 O  py                 4     -0.544224  1 O  py         
    16      0.478233  2 H  s                 18      0.478153  3 H  s          
    17     -0.384589  2 H  s                 19     -0.384635  3 H  s          
    15     -0.331448  1 O  dzz               13     -0.277800  1 O  dyy        

 Vector   12  Occ=0.000000D+00  E= 1.065329D+00
              MO Center=  3.3D-04,  1.0D-01,  7.5D-12, r^2= 1.5D+00
   Bfn.  Coefficient  Atom+Function         Bfn.  Coefficient  Atom+Function  
  ----- ------------  ---------------      ----- ------------  ---------------
     7      1.625356  1 O  px                 3     -0.989127  1 O  px         
    17     -0.926108  2 H  s                 19      0.926006  3 H  s          
    11      0.026982  1 O  dxy        

 Vector   13  Occ=0.000000D+00  E= 1.194678D+00
              MO Center= -8.0D-04, -3.6D-01,  1.7D-09, r^2= 1.4D+00
   Bfn.  Coefficient  Atom+Function         Bfn.  Coefficient  Atom+Function  
  ----- ------------  ---------------      ----- ------------  ---------------
     6      3.588380  1 O  s                  2     -1.452688  1 O  s          
     8     -1.111475  1 O  py                17     -0.769053  2 H  s          
    19     -0.768907  3 H  s                 10     -0.657347  1 O  dxx        
     4      0.403034  1 O  py                13     -0.393888  1 O  dyy        
    16     -0.357803  2 H  s                 18     -0.357816  3 H  s          

 Vector   14  Occ=0.000000D+00  E= 1.728167D+00
              MO Center=  4.4D-04,  1.7D-01,  3.7D-11, r^2= 6.2D-01
   Bfn.  Coefficient  Atom+Function         Bfn.  Coefficient  Atom+Function  
  ----- ------------  ---------------      ----- ------------  ---------------
    13      1.005752  1 O  dyy               10     -0.601625  1 O  dxx        
    15     -0.337336  1 O  dzz                6     -0.250974  1 O  s          
     8      0.143401  1 O  py                 2      0.089723  1 O  s          
    16      0.080904  2 H  s                 18      0.080906  3 H  s          
    17      0.042202  2 H  s                 19      0.042195  3 H  s          

 Vector   15  Occ=0.000000D+00  E= 1.746763D+00
              MO Center=  3.2D-04,  1.2D-01,  7.6D-12, r^2= 6.1D-01
   Bfn.  Coefficient  Atom+Function         Bfn.  Coefficient  Atom+Function  
  ----- ------------  ---------------      ----- ------------  ---------------
    12      1.732046  1 O  dxz        

 Vector   16  Occ=0.000000D+00  E= 1.779464D+00
              MO Center=  3.8D-04,  1.5D-01, -7.4D-13, r^2= 6.1D-01
   Bfn.  Coefficient  Atom+Function         Bfn.  Coefficient  Atom+Function  
  ----- ------------  ---------------      ----- ------------  ---------------
    14      1.730719  1 O  dyz                9      0.035110  1 O  pz         

 Vector   17  Occ=0.000000D+00  E= 2.279877D+00
              MO Center=  1.3D-05,  3.9D-03,  8.3D-11, r^2= 8.3D-01
   Bfn.  Coefficient  Atom+Function         Bfn.  Coefficient  Atom+Function  
  ----- ------------  ---------------      ----- ------------  ---------------
     6      1.540827  1 O  s                 15     -1.133294  1 O  dzz        
    16     -0.812253  2 H  s                 18     -0.812395  3 H  s          
     8     -0.742585  1 O  py                10      0.729690  1 O  dxx        
     2     -0.516264  1 O  s                 17     -0.141998  2 H  s          
    19     -0.141941  3 H  s                 13      0.078525  1 O  dyy        

 Vector   18  Occ=0.000000D+00  E= 2.575545D+00
              MO Center=  2.1D-04,  6.6D-02,  8.6D-12, r^2= 8.6D-01
   Bfn.  Coefficient  Atom+Function         Bfn.  Coefficient  Atom+Function  
  ----- ------------  ---------------      ----- ------------  ---------------
    11      2.202626  1 O  dxy               16      0.921440  2 H  s          
    18     -0.921157  3 H  s                  7     -0.836454  1 O  px         
    17     -0.052273  2 H  s                 19      0.052340  3 H  s          
     3      0.036968  1 O  px         

 Vector   19  Occ=0.000000D+00  E= 3.550984D+00
              MO Center=  3.2D-04,  1.2D-01, -1.2D-10, r^2= 1.0D+00
   Bfn.  Coefficient  Atom+Function         Bfn.  Coefficient  Atom+Function  
  ----- ------------  ---------------      ----- ------------  ---------------
     6      3.687014  1 O  s                 15     -1.578736  1 O  dzz        
    13     -1.548832  1 O  dyy               10     -1.525430  1 O  dxx        
    17     -0.553427  2 H  s                 19     -0.553372  3 H  s          
     1     -0.467835  1 O  s                  8     -0.335228  1 O  py         
     2      0.287298  1 O  s                  4      0.116821  1 O  py         


     ---------------------------------------------
      Total Density - Mulliken Population Analysis
     ---------------------------------------------

    Atom       Charge   Shell Charges
 -----------   ------   -------------------------------------------------------
    1 O    8     8.77   1.99  0.90  2.92  0.98  1.94  0.04
    2 H    1     0.61   0.48  0.14
    3 H    1     0.61   0.48  0.14

     -------------------------------------------
      Total Density - Lowdin Population Analysis
     -------------------------------------------

    Atom       Charge   Shell Charges
 -----------   ------   -------------------------------------------------------
    1 O    8     8.67   1.98  0.72  2.78  0.50  2.13  0.57
    2 H    1     0.66   0.44  0.22
    3 H    1     0.66   0.44  0.22
 Line search: 
     step= 1.00 grad=-1.2D-05 hess= 1.2D-05 energy=    -76.408951 mode=accept  
 new step= 1.00                   predicted energy=    -76.408951

          --------
          Step   1
          --------

                                 NWChem DFT Module
                                 -----------------


                                     cpd00094




  The DFT is already converged 

         Total DFT energy =    -76.408950971456



                         DFT ENERGY GRADIENTS

    atom               coordinates                        gradient
                 x          y          z           x          y          z
   1 O       0.000613   0.231462   0.000000    0.000038   0.001287   0.000000
   2 H       1.434315  -0.908402   0.000000   -0.000125  -0.000630  -0.000000
   3 H      -1.438500  -0.901699  -0.000000    0.000087  -0.000657   0.000000


  Step       Energy      Delta E   Gmax     Grms     Xrms     Xmax   Walltime
  ---- ---------------- -------- -------- -------- -------- -------- --------
@    1     -76.40895097  4.1D-07  0.00129  0.00053  0.00384  0.00636      3.1
                                                                    


                                 NWChem DFT Module
                                 -----------------


                                     cpd00094



  Caching 1-el integrals 
   Time after variat. SCF:      3.2

     ---------------------------------------------
      Total Density - Mulliken Population Analysis
     ---------------------------------------------

    Atom       Charge   Shell Charges
 -----------   ------   -------------------------------------------------------
    1 O    8     8.77   1.99  0.90  2.92  0.98  1.94  0.04
    2 H    1     0.61   0.48  0.14
    3 H    1     0.61   0.48  0.14
   Time prior to 1st pass:      3.2


         Total DFT energy =      -76.408954504095
      One electron energy =     -122.937810639444
           Coulomb energy =       46.783607255428
    Exchange-Corr. energy =       -9.343390878874
 Nuclear repulsion energy =        9.088639758795

 Numeric. integr. density =       10.000001068762

     Total iterative time =      0.5s



                       DFT Final Molecular Orbital Analysis
                       ------------------------------------

 Vector    1  Occ=2.000000D+00  E=-1.913815D+01
              MO Center=  3.1D-04,  1.2D-01, -3.3D-13, r^2= 1.5D-02
   Bfn.  Coefficient  Atom+Function         Bfn.  Coefficient  Atom+Function  
  ----- ------------  ---------------      ----- ------------  ---------------
     1      0.992860  1 O  s                  2      0.026224  1 O  s          

 Vector    2  Occ=2.000000D+00  E=-9.979255D-01
              MO Center= -1.7D-04, -8.7D-02, -1.3D-10, r^2= 5.1D-01
   Bfn.  Coefficient  Atom+Function         Bfn.  Coefficient  Atom+Function  
  ----- ------------  ---------------      ----- ------------  ---------------
     2      0.469210  1 O  s                  6      0.439478  1 O  s          
     1     -0.209499  1 O  s                 16      0.139167  2 H  s          
    18      0.139160  3 H  s                  4     -0.127708  1 O  py         
     8     -0.060646  1 O  py         

 Vector    3  Occ=2.000000D+00  E=-5.171777D-01
              MO Center= -2.4D-04, -1.1D-01, -2.0D-11, r^2= 7.9D-01
   Bfn.  Coefficient  Atom+Function         Bfn.  Coefficient  Atom+Function  
  ----- ------------  ---------------      ----- ------------  ---------------
     3      0.517450  1 O  px                 7      0.269745  1 O  px         
    16      0.237447  2 H  s                 18     -0.237446  3 H  s          
    17      0.141930  2 H  s                 19     -0.141932  3 H  s          
    11     -0.071485  1 O  dxy        

 Vector    4  Occ=2.000000D+00  E=-3.722198D-01
              MO Center=  4.9D-04,  2.0D-01, -1.7D-09, r^2= 7.0D-01
   Bfn.  Coefficient  Atom+Function         Bfn.  Coefficient  Atom+Function  
  ----- ------------  ---------------      ----- ------------  ---------------
     4      0.551825  1 O  py                 6      0.410439  1 O  s          
     8      0.372154  1 O  py                 2      0.177261  1 O  s          
    16     -0.143721  2 H  s                 18     -0.143725  3 H  s          
    17     -0.114249  2 H  s                 19     -0.114254  3 H  s          
     1     -0.088099  1 O  s                 13     -0.052426  1 O  dyy        

 Vector    5  Occ=2.000000D+00  E=-2.911961D-01
              MO Center=  2.6D-04,  1.0D-01,  1.5D-09, r^2= 6.0D-01
   Bfn.  Coefficient  Atom+Function         Bfn.  Coefficient  Atom+Function  
  ----- ------------  ---------------      ----- ------------  ---------------
     5      0.644577  1 O  pz                 9      0.506049  1 O  pz         
    14     -0.061387  1 O  dyz        

 Vector    6  Occ=0.000000D+00  E= 6.263009D-02
              MO Center= -1.5D-03, -6.2D-01,  1.5D-09, r^2= 2.4D+00
   Bfn.  Coefficient  Atom+Function         Bfn.  Coefficient  Atom+Function  
  ----- ------------  ---------------      ----- ------------  ---------------
     6      1.258020  1 O  s                 17     -0.969119  2 H  s          
    19     -0.969187  3 H  s                  8     -0.477447  1 O  py         
     4     -0.280625  1 O  py                 2      0.119292  1 O  s          
     1     -0.100648  1 O  s                 16     -0.096241  2 H  s          
    18     -0.096255  3 H  s                 15     -0.058050  1 O  dzz        

 Vector    7  Occ=0.000000D+00  E= 1.481591D-01
              MO Center= -1.2D-03, -5.7D-01, -2.2D-12, r^2= 2.5D+00
   Bfn.  Coefficient  Atom+Function         Bfn.  Coefficient  Atom+Function  
  ----- ------------  ---------------      ----- ------------  ---------------
    17      1.278046  2 H  s                 19     -1.277941  3 H  s          
     7     -0.758864  1 O  px                 3     -0.413422  1 O  px         
    16      0.107315  2 H  s                 18     -0.107316  3 H  s          
    11      0.031942  1 O  dxy        

 Vector    8  Occ=0.000000D+00  E= 7.725148D-01
              MO Center= -4.6D-04, -1.5D-01, -1.0D-12, r^2= 1.6D+00
   Bfn.  Coefficient  Atom+Function         Bfn.  Coefficient  Atom+Function  
  ----- ------------  ---------------      ----- ------------  ---------------
    16      0.840151  2 H  s                 18     -0.840296  3 H  s          
    17     -0.654938  2 H  s                 19      0.655084  3 H  s          
     7     -0.430891  1 O  px                11     -0.339530  1 O  dxy        
     3     -0.172149  1 O  px         

 Vector    9  Occ=0.000000D+00  E= 8.610287D-01
              MO Center= -3.7D-04, -2.1D-01,  4.3D-08, r^2= 1.3D+00
   Bfn.  Coefficient  Atom+Function         Bfn.  Coefficient  Atom+Function  
  ----- ------------  ---------------      ----- ------------  ---------------
     4      0.708586  1 O  py                16      0.711258  2 H  s          
    18      0.711100  3 H  s                 17     -0.551541  2 H  s          
    19     -0.551482  3 H  s                  8     -0.384214  1 O  py         
    10      0.153738  1 O  dxx                2     -0.134577  1 O  s          
     6      0.133551  1 O  s                 15     -0.118926  1 O  dzz        

 Vector   10  Occ=0.000000D+00  E= 8.907799D-01
              MO Center=  3.0D-04,  1.2D-01,  2.3D-07, r^2= 1.1D+00
   Bfn.  Coefficient  Atom+Function         Bfn.  Coefficient  Atom+Function  
  ----- ------------  ---------------      ----- ------------  ---------------
     9     -1.038622  1 O  pz                 5      0.959435  1 O  pz         
    14      0.028413  1 O  dyz        

 Vector   11  Occ=0.000000D+00  E= 8.951018D-01
              MO Center=  7.6D-04,  3.2D-01, -2.8D-07, r^2= 1.4D+00
   Bfn.  Coefficient  Atom+Function         Bfn.  Coefficient  Atom+Function  
  ----- ------------  ---------------      ----- ------------  ---------------
     6      1.409669  1 O  s                  2     -0.836090  1 O  s          
     8      0.827242  1 O  py                 4     -0.557527  1 O  py         
    16      0.468794  2 H  s                 18      0.468757  3 H  s          
    17     -0.373980  2 H  s                 19     -0.374003  3 H  s          
    15     -0.327587  1 O  dzz               13     -0.276863  1 O  dyy        

 Vector   12  Occ=0.000000D+00  E= 1.065812D+00
              MO Center=  2.9D-04,  1.0D-01,  7.3D-12, r^2= 1.5D+00
   Bfn.  Coefficient  Atom+Function         Bfn.  Coefficient  Atom+Function  
  ----- ------------  ---------------      ----- ------------  ---------------
     7      1.628143  1 O  px                 3     -0.989266  1 O  px         
    17     -0.926874  2 H  s                 19      0.926827  3 H  s          
    11      0.027614  1 O  dxy        

 Vector   13  Occ=0.000000D+00  E= 1.193448D+00
              MO Center= -8.2D-04, -3.7D-01,  1.7D-09, r^2= 1.4D+00
   Bfn.  Coefficient  Atom+Function         Bfn.  Coefficient  Atom+Function  
  ----- ------------  ---------------      ----- ------------  ---------------
     6      3.597252  1 O  s                  2     -1.457625  1 O  s          
     8     -1.105580  1 O  py                17     -0.773424  2 H  s          
    19     -0.773354  3 H  s                 10     -0.657538  1 O  dxx        
     4      0.402457  1 O  py                13     -0.393281  1 O  dyy        
    16     -0.352035  2 H  s                 18     -0.352041  3 H  s          

 Vector   14  Occ=0.000000D+00  E= 1.729081D+00
              MO Center=  4.3D-04,  1.7D-01,  3.7D-11, r^2= 6.2D-01
   Bfn.  Coefficient  Atom+Function         Bfn.  Coefficient  Atom+Function  
  ----- ------------  ---------------      ----- ------------  ---------------
    13      1.006955  1 O  dyy               10     -0.595845  1 O  dxx        
    15     -0.343982  1 O  dzz                6     -0.252492  1 O  s          
     8      0.143583  1 O  py                 2      0.090132  1 O  s          
    16      0.081748  2 H  s                 18      0.081750  3 H  s          
    17      0.042282  2 H  s                 19      0.042279  3 H  s          

 Vector   15  Occ=0.000000D+00  E= 1.746350D+00
              MO Center=  3.1D-04,  1.2D-01,  7.6D-12, r^2= 6.1D-01
   Bfn.  Coefficient  Atom+Function         Bfn.  Coefficient  Atom+Function  
  ----- ------------  ---------------      ----- ------------  ---------------
    12      1.732046  1 O  dxz        

 Vector   16  Occ=0.000000D+00  E= 1.779792D+00
              MO Center=  3.7D-04,  1.5D-01, -5.7D-13, r^2= 6.1D-01
   Bfn.  Coefficient  Atom+Function         Bfn.  Coefficient  Atom+Function  
  ----- ------------  ---------------      ----- ------------  ---------------
    14      1.730725  1 O  dyz                9      0.035000  1 O  pz         

 Vector   17  Occ=0.000000D+00  E= 2.280703D+00
              MO Center=  2.1D-05,  3.3D-03,  8.2D-11, r^2= 8.3D-01
   Bfn.  Coefficient  Atom+Function         Bfn.  Coefficient  Atom+Function  
  ----- ------------  ---------------      ----- ------------  ---------------
     6      1.539181  1 O  s                 15     -1.131174  1 O  dzz        
    16     -0.812491  2 H  s                 18     -0.812557  3 H  s          
     8     -0.739188  1 O  py                10      0.736310  1 O  dxx        
     2     -0.514843  1 O  s                 17     -0.141500  2 H  s          
    19     -0.141474  3 H  s                 13      0.070630  1 O  dyy        

 Vector   18  Occ=0.000000D+00  E= 2.577296D+00
              MO Center=  1.9D-04,  6.4D-02,  8.6D-12, r^2= 8.6D-01
   Bfn.  Coefficient  Atom+Function         Bfn.  Coefficient  Atom+Function  
  ----- ------------  ---------------      ----- ------------  ---------------
    11      2.203520  1 O  dxy               16      0.923750  2 H  s          
    18     -0.923617  3 H  s                  7     -0.842631  1 O  px         
    17     -0.050081  2 H  s                 19      0.050112  3 H  s          
     3      0.036821  1 O  px         

 Vector   19  Occ=0.000000D+00  E= 3.551961D+00
              MO Center=  3.1D-04,  1.2D-01, -1.2D-10, r^2= 1.0D+00
   Bfn.  Coefficient  Atom+Function         Bfn.  Coefficient  Atom+Function  
  ----- ------------  ---------------      ----- ------------  ---------------
     6      3.689771  1 O  s                 15     -1.578754  1 O  dzz        
    13     -1.549687  1 O  dyy               10     -1.526187  1 O  dxx        
    17     -0.554638  2 H  s                 19     -0.554613  3 H  s          
     1     -0.467958  1 O  s                  8     -0.333970  1 O  py         
     2      0.286644  1 O  s                  4      0.116628  1 O  py         


     ---------------------------------------------
      Total Density - Mulliken Population Analysis
     ---------------------------------------------

    Atom       Charge   Shell Charges
 -----------   ------   -------------------------------------------------------
    1 O    8     8.77   1.99  0.90  2.92  0.98  1.94  0.04
    2 H    1     0.61   0.48  0.14
    3 H    1     0.61   0.48  0.14

     -------------------------------------------
      Total Density - Lowdin Population Analysis
     -------------------------------------------

    Atom       Charge   Shell Charges
 -----------   ------   -------------------------------------------------------
    1 O    8     8.67   1.98  0.72  2.78  0.50  2.13  0.57
    2 H    1     0.66   0.44  0.22
    3 H    1     0.66   0.44  0.22
 Line search: 
     step= 1.00 grad=-7.3D-06 hess= 3.8D-06 energy=    -76.408955 mode=accept  
 new step= 1.00                   predicted energy=    -76.408955

          --------
          Step   2
          --------

                                 NWChem DFT Module
                                 -----------------


                                     cpd00094




  The DFT is already converged 

         Total DFT energy =    -76.408954504095



                         DFT ENERGY GRADIENTS

    atom               coordinates                        gradient
                 x          y          z           x          y          z
   1 O       0.000589   0.227963  -0.000000    0.000016  -0.000134   0.000000
   2 H       1.436896  -0.906665   0.000000   -0.000101   0.000074  -0.000000
   3 H      -1.441057  -0.899937  -0.000000    0.000085   0.000061   0.000000


  Step       Energy      Delta E   Gmax     Grms     Xrms     Xmax   Walltime
  ---- ---------------- -------- -------- -------- -------- -------- --------
@    2     -76.40895450 -3.5D-06  0.00013  0.00007  0.00187  0.00350      4.5
                                     ok       ok                    


                                 NWChem DFT Module
                                 -----------------


                                     cpd00094



  Caching 1-el integrals 
   Time after variat. SCF:      4.6

     ---------------------------------------------
      Total Density - Mulliken Population Analysis
     ---------------------------------------------

    Atom       Charge   Shell Charges
 -----------   ------   -------------------------------------------------------
    1 O    8     8.77   1.99  0.90  2.92  0.98  1.94  0.04
    2 H    1     0.61   0.48  0.14
    3 H    1     0.61   0.48  0.14
   Time prior to 1st pass:      4.6


         Total DFT energy =      -76.408954521647
      One electron energy =     -122.934734810883
           Coulomb energy =       46.781696858545
    Exchange-Corr. energy =       -9.343166268204
 Nuclear repulsion energy =        9.087249698894

 Numeric. integr. density =       10.000001069759

     Total iterative time =      0.4s



                       DFT Final Molecular Orbital Analysis
                       ------------------------------------

 Vector    1  Occ=2.000000D+00  E=-1.913820D+01
              MO Center=  3.0D-04,  1.2D-01, -3.3D-13, r^2= 1.5D-02
   Bfn.  Coefficient  Atom+Function         Bfn.  Coefficient  Atom+Function  
  ----- ------------  ---------------      ----- ------------  ---------------
     1      0.992860  1 O  s                  2      0.026224  1 O  s          

 Vector    2  Occ=2.000000D+00  E=-9.978655D-01
              MO Center= -1.9D-04, -8.7D-02, -1.3D-10, r^2= 5.1D-01
   Bfn.  Coefficient  Atom+Function         Bfn.  Coefficient  Atom+Function  
  ----- ------------  ---------------      ----- ------------  ---------------
     2      0.469220  1 O  s                  6      0.439548  1 O  s          
     1     -0.209504  1 O  s                 16      0.139127  2 H  s          
    18      0.139132  3 H  s                  4     -0.127673  1 O  py         
     8     -0.060653  1 O  py         

 Vector    3  Occ=2.000000D+00  E=-5.171270D-01
              MO Center= -2.3D-04, -1.1D-01, -2.1D-11, r^2= 7.9D-01
   Bfn.  Coefficient  Atom+Function         Bfn.  Coefficient  Atom+Function  
  ----- ------------  ---------------      ----- ------------  ---------------
     3      0.517434  1 O  px                 7      0.269767  1 O  px         
    16      0.237433  2 H  s                 18     -0.237433  3 H  s          
    17      0.141959  2 H  s                 19     -0.141957  3 H  s          
    11     -0.071479  1 O  dxy        

 Vector    4  Occ=2.000000D+00  E=-3.722158D-01
              MO Center=  4.8D-04,  2.0D-01, -1.7D-09, r^2= 7.0D-01
   Bfn.  Coefficient  Atom+Function         Bfn.  Coefficient  Atom+Function  
  ----- ------------  ---------------      ----- ------------  ---------------
     4      0.551817  1 O  py                 6      0.410407  1 O  s          
     8      0.372146  1 O  py                 2      0.177248  1 O  s          
    16     -0.143737  2 H  s                 18     -0.143735  3 H  s          
    17     -0.114289  2 H  s                 19     -0.114286  3 H  s          
     1     -0.088093  1 O  s                 13     -0.052418  1 O  dyy        

 Vector    5  Occ=2.000000D+00  E=-2.911921D-01
              MO Center=  2.5D-04,  1.0D-01,  1.5D-09, r^2= 6.0D-01
   Bfn.  Coefficient  Atom+Function         Bfn.  Coefficient  Atom+Function  
  ----- ------------  ---------------      ----- ------------  ---------------
     5      0.644584  1 O  pz                 9      0.506042  1 O  pz         
    14     -0.061371  1 O  dyz        

 Vector    6  Occ=0.000000D+00  E= 6.258865D-02
              MO Center= -1.4D-03, -6.2D-01,  1.5D-09, r^2= 2.4D+00
   Bfn.  Coefficient  Atom+Function         Bfn.  Coefficient  Atom+Function  
  ----- ------------  ---------------      ----- ------------  ---------------
     6      1.257700  1 O  s                 17     -0.969026  2 H  s          
    19     -0.968981  3 H  s                  8     -0.477459  1 O  py         
     4     -0.280692  1 O  py                 2      0.119310  1 O  s          
     1     -0.100642  1 O  s                 16     -0.096304  2 H  s          
    18     -0.096295  3 H  s                 15     -0.058035  1 O  dzz        

 Vector    7  Occ=0.000000D+00  E= 1.481046D-01
              MO Center= -1.4D-03, -5.7D-01, -2.3D-12, r^2= 2.5D+00
   Bfn.  Coefficient  Atom+Function         Bfn.  Coefficient  Atom+Function  
  ----- ------------  ---------------      ----- ------------  ---------------
    17      1.277628  2 H  s                 19     -1.277695  3 H  s          
     7     -0.758780  1 O  px                 3     -0.413472  1 O  px         
    16      0.107367  2 H  s                 18     -0.107367  3 H  s          
    11      0.031926  1 O  dxy        

 Vector    8  Occ=0.000000D+00  E= 7.724522D-01
              MO Center= -2.6D-04, -1.5D-01, -4.5D-13, r^2= 1.6D+00
   Bfn.  Coefficient  Atom+Function         Bfn.  Coefficient  Atom+Function  
  ----- ------------  ---------------      ----- ------------  ---------------
    16      0.840255  2 H  s                 18     -0.840165  3 H  s          
    17     -0.655491  2 H  s                 19      0.655402  3 H  s          
     7     -0.430284  1 O  px                11     -0.339538  1 O  dxy        
     3     -0.172282  1 O  px         

 Vector    9  Occ=0.000000D+00  E= 8.608790D-01
              MO Center= -5.4D-04, -2.1D-01,  4.3D-08, r^2= 1.3D+00
   Bfn.  Coefficient  Atom+Function         Bfn.  Coefficient  Atom+Function  
  ----- ------------  ---------------      ----- ------------  ---------------
    16      0.711897  2 H  s                 18      0.711995  3 H  s          
     4      0.707577  1 O  py                17     -0.552216  2 H  s          
    19     -0.552253  3 H  s                  8     -0.382903  1 O  py         
    10      0.153457  1 O  dxx                2     -0.135812  1 O  s          
     6      0.135879  1 O  s                 15     -0.119385  1 O  dzz        

 Vector   10  Occ=0.000000D+00  E= 8.907753D-01
              MO Center=  2.9D-04,  1.2D-01,  2.3D-07, r^2= 1.1D+00
   Bfn.  Coefficient  Atom+Function         Bfn.  Coefficient  Atom+Function  
  ----- ------------  ---------------      ----- ------------  ---------------
     9     -1.038626  1 O  pz                 5      0.959431  1 O  pz         
    14      0.028415  1 O  dyz        

 Vector   11  Occ=0.000000D+00  E= 8.950810D-01
              MO Center=  7.9D-04,  3.2D-01, -2.8D-07, r^2= 1.4D+00
   Bfn.  Coefficient  Atom+Function         Bfn.  Coefficient  Atom+Function  
  ----- ------------  ---------------      ----- ------------  ---------------
     6      1.409928  1 O  s                  2     -0.835989  1 O  s          
     8      0.827678  1 O  py                 4     -0.558690  1 O  py         
    16      0.467510  2 H  s                 18      0.467532  3 H  s          
    17     -0.373227  2 H  s                 19     -0.373213  3 H  s          
    15     -0.327406  1 O  dzz               13     -0.276902  1 O  dyy        

 Vector   12  Occ=0.000000D+00  E= 1.065773D+00
              MO Center=  2.4D-04,  1.0D-01,  7.1D-12, r^2= 1.5D+00
   Bfn.  Coefficient  Atom+Function         Bfn.  Coefficient  Atom+Function  
  ----- ------------  ---------------      ----- ------------  ---------------
     7      1.628103  1 O  px                 3     -0.989209  1 O  px         
    17     -0.926453  2 H  s                 19      0.926483  3 H  s          
    11      0.027827  1 O  dxy        

 Vector   13  Occ=0.000000D+00  E= 1.193420D+00
              MO Center= -8.5D-04, -3.7D-01,  1.7D-09, r^2= 1.4D+00
   Bfn.  Coefficient  Atom+Function         Bfn.  Coefficient  Atom+Function  
  ----- ------------  ---------------      ----- ------------  ---------------
     6      3.596597  1 O  s                  2     -1.457473  1 O  s          
     8     -1.105583  1 O  py                17     -0.773123  2 H  s          
    19     -0.773165  3 H  s                 10     -0.657516  1 O  dxx        
     4      0.402581  1 O  py                13     -0.393275  1 O  dyy        
    16     -0.352069  2 H  s                 18     -0.352066  3 H  s          

 Vector   14  Occ=0.000000D+00  E= 1.729114D+00
              MO Center=  4.2D-04,  1.7D-01,  3.7D-11, r^2= 6.2D-01
   Bfn.  Coefficient  Atom+Function         Bfn.  Coefficient  Atom+Function  
  ----- ------------  ---------------      ----- ------------  ---------------
    13      1.006954  1 O  dyy               10     -0.595853  1 O  dxx        
    15     -0.343983  1 O  dzz                6     -0.252391  1 O  s          
     8      0.143548  1 O  py                 2      0.090115  1 O  s          
    16      0.081722  2 H  s                 18      0.081721  3 H  s          
    17      0.042254  2 H  s                 19      0.042256  3 H  s          

 Vector   15  Occ=0.000000D+00  E= 1.746378D+00
              MO Center=  3.0D-04,  1.2D-01,  7.6D-12, r^2= 6.1D-01
   Bfn.  Coefficient  Atom+Function         Bfn.  Coefficient  Atom+Function  
  ----- ------------  ---------------      ----- ------------  ---------------
    12      1.732046  1 O  dxz        

 Vector   16  Occ=0.000000D+00  E= 1.779812D+00
              MO Center=  3.6D-04,  1.5D-01, -5.7D-13, r^2= 6.1D-01
   Bfn.  Coefficient  Atom+Function         Bfn.  Coefficient  Atom+Function  
  ----- ------------  ---------------      ----- ------------  ---------------
    14      1.730725  1 O  dyz                9      0.034996  1 O  pz         

 Vector   17  Occ=0.000000D+00  E= 2.280523D+00
              MO Center=  3.5D-05,  3.4D-03,  8.2D-11, r^2= 8.3D-01
   Bfn.  Coefficient  Atom+Function         Bfn.  Coefficient  Atom+Function  
  ----- ------------  ---------------      ----- ------------  ---------------
     6      1.538577  1 O  s                 15     -1.131100  1 O  dzz        
    16     -0.812259  2 H  s                 18     -0.812218  3 H  s          
     8     -0.738951  1 O  py                10      0.736263  1 O  dxx        
     2     -0.514830  1 O  s                 17     -0.141347  2 H  s          
    19     -0.141363  3 H  s                 13      0.070621  1 O  dyy        

 Vector   18  Occ=0.000000D+00  E= 2.577039D+00
              MO Center=  1.6D-04,  6.4D-02,  8.7D-12, r^2= 8.6D-01
   Bfn.  Coefficient  Atom+Function         Bfn.  Coefficient  Atom+Function  
  ----- ------------  ---------------      ----- ------------  ---------------
    11      2.203218  1 O  dxy               16      0.923358  2 H  s          
    18     -0.923440  3 H  s                  7     -0.842358  1 O  px         
    17     -0.050212  2 H  s                 19      0.050193  3 H  s          
     3      0.036983  1 O  px         

 Vector   19  Occ=0.000000D+00  E= 3.551881D+00
              MO Center=  3.0D-04,  1.2D-01, -1.2D-10, r^2= 1.0D+00
   Bfn.  Coefficient  Atom+Function         Bfn.  Coefficient  Atom+Function  
  ----- ------------  ---------------      ----- ------------  ---------------
     6      3.689426  1 O  s                 15     -1.578741  1 O  dzz        
    13     -1.549621  1 O  dyy               10     -1.526090  1 O  dxx        
    17     -0.554496  2 H  s                 19     -0.554512  3 H  s          
     1     -0.467944  1 O  s                  8     -0.333959  1 O  py         
     2      0.286727  1 O  s                  4      0.116598  1 O  py         


     ---------------------------------------------
      Total Density - Mulliken Population Analysis
     ---------------------------------------------

    Atom       Charge   Shell Charges
 -----------   ------   -------------------------------------------------------
    1 O    8     8.77   1.99  0.90  2.92  0.98  1.94  0.04
    2 H    1     0.61   0.48  0.14
    3 H    1     0.61   0.48  0.14

     -------------------------------------------
      Total Density - Lowdin Population Analysis
     -------------------------------------------

    Atom       Charge   Shell Charges
 -----------   ------   -------------------------------------------------------
    1 O    8     8.67   1.98  0.72  2.78  0.50  2.13  0.57
    2 H    1     0.66   0.44  0.22
    3 H    1     0.66   0.44  0.22
 Line search: 
     step= 1.00 grad=-6.5D-08 hess= 4.7D-08 energy=    -76.408955 mode=accept  
 new step= 1.00                   predicted energy=    -76.408955

          --------
          Step   3
          --------

                                 NWChem DFT Module
                                 -----------------


                                     cpd00094




  The DFT is already converged 

         Total DFT energy =    -76.408954521647



                         DFT ENERGY GRADIENTS

    atom               coordinates                        gradient
                 x          y          z           x          y          z
   1 O       0.000567   0.228073   0.000000   -0.000010   0.000032   0.000000
   2 H       1.437133  -0.906729   0.000000    0.000033  -0.000020  -0.000000
   3 H      -1.441272  -0.899983  -0.000000   -0.000023  -0.000012   0.000000


  Step       Energy      Delta E   Gmax     Grms     Xrms     Xmax   Walltime
  ---- ---------------- -------- -------- -------- -------- -------- --------
@    3     -76.40895452 -1.8D-08  0.00003  0.00002  0.00012  0.00024      5.7
                                     ok       ok       ok       ok  


      ----------------------
      Optimization converged
      ----------------------


  Step       Energy      Delta E   Gmax     Grms     Xrms     Xmax   Walltime
  ---- ---------------- -------- -------- -------- -------- -------- --------
@    3     -76.40895452 -1.8D-08  0.00003  0.00002  0.00012  0.00024      5.7
                                     ok       ok       ok       ok  



                         Geometry "geometry" -> "geometry"
                         ---------------------------------

 Output coordinates in angstroms (scale by  1.889725989 to convert to a.u.)

  No.       Tag          Charge          X              Y              Z
 ---- ---------------- ---------- -------------- -------------- --------------
    1 O                    8.0000     0.00030007     0.12069107     0.00000000
    2 H                    1.0000     0.76049832    -0.47982055     0.00000000
    3 H                    1.0000    -0.76268838    -0.47625052    -0.00000000

      Atomic Mass 
      ----------- 

      O                 15.994910
      H                  1.007825


 Effective nuclear repulsion energy (a.u.)       9.0872496989

            Nuclear Dipole moment (a.u.) 
            ----------------------------
        X                 Y               Z
 ---------------- ---------------- ----------------
     0.0003977164     0.0178720922    -0.0000000000



                                NWChem Input Module
                                -------------------


                              NWChem Property Module
                              ----------------------


                                 NWChem DFT Module
                                 -----------------


                                     cpd00094



  Caching 1-el integrals 
   Time after variat. SCF:      5.9

     ---------------------------------------------
      Total Density - Mulliken Population Analysis
     ---------------------------------------------

    Atom       Charge   Shell Charges
 -----------   ------   -------------------------------------------------------
    1 O    8     8.77   1.99  0.90  2.92  0.98  1.94  0.04
    2 H    1     0.61   0.48  0.14
    3 H    1     0.61   0.48  0.14
   Time prior to 1st pass:      5.9


         Total DFT energy =      -76.408953974566
      One electron energy =     -122.935101504420
           Coulomb energy =       46.782114430521
    Exchange-Corr. energy =       -9.343216599561
 Nuclear repulsion energy =        9.087249698894

 Numeric. integr. density =       10.000000403082

     Total iterative time =      0.5s



                       DFT Final Molecular Orbital Analysis
                       ------------------------------------

 Vector    1  Occ=2.000000D+00  E=-1.913818D+01
              MO Center=  3.0D-04,  1.2D-01,  1.9D-12, r^2= 1.5D-02
   Bfn.  Coefficient  Atom+Function         Bfn.  Coefficient  Atom+Function  
  ----- ------------  ---------------      ----- ------------  ---------------
     1      0.992860  1 O  s                  2      0.026224  1 O  s          

 Vector    2  Occ=2.000000D+00  E=-9.978620D-01
              MO Center= -1.9D-04, -8.7D-02, -4.6D-10, r^2= 5.1D-01
   Bfn.  Coefficient  Atom+Function         Bfn.  Coefficient  Atom+Function  
  ----- ------------  ---------------      ----- ------------  ---------------
     2      0.469216  1 O  s                  6      0.439546  1 O  s          
     1     -0.209504  1 O  s                 16      0.139128  2 H  s          
    18      0.139133  3 H  s                  4     -0.127676  1 O  py         
     8     -0.060656  1 O  py         

 Vector    3  Occ=2.000000D+00  E=-5.171243D-01
              MO Center= -2.3D-04, -1.1D-01, -1.8D-11, r^2= 7.9D-01
   Bfn.  Coefficient  Atom+Function         Bfn.  Coefficient  Atom+Function  
  ----- ------------  ---------------      ----- ------------  ---------------
     3      0.517428  1 O  px                 7      0.269767  1 O  px         
    16      0.237434  2 H  s                 18     -0.237435  3 H  s          
    17      0.141962  2 H  s                 19     -0.141961  3 H  s          
    11     -0.071480  1 O  dxy        

 Vector    4  Occ=2.000000D+00  E=-3.722087D-01
              MO Center=  4.8D-04,  2.0D-01, -7.0D-10, r^2= 7.0D-01
   Bfn.  Coefficient  Atom+Function         Bfn.  Coefficient  Atom+Function  
  ----- ------------  ---------------      ----- ------------  ---------------
     4      0.551810  1 O  py                 6      0.410417  1 O  s          
     8      0.372147  1 O  py                 2      0.177252  1 O  s          
    16     -0.143738  2 H  s                 18     -0.143735  3 H  s          
    17     -0.114294  2 H  s                 19     -0.114291  3 H  s          
     1     -0.088095  1 O  s                 13     -0.052419  1 O  dyy        

 Vector    5  Occ=2.000000D+00  E=-2.911858D-01
              MO Center=  2.5D-04,  1.0D-01,  9.7D-10, r^2= 6.0D-01
   Bfn.  Coefficient  Atom+Function         Bfn.  Coefficient  Atom+Function  
  ----- ------------  ---------------      ----- ------------  ---------------
     5      0.644581  1 O  pz                 9      0.506045  1 O  pz         
    14     -0.061373  1 O  dyz        

 Vector    6  Occ=0.000000D+00  E= 6.258834D-02
              MO Center= -1.4D-03, -6.2D-01,  4.3D-11, r^2= 2.4D+00
   Bfn.  Coefficient  Atom+Function         Bfn.  Coefficient  Atom+Function  
  ----- ------------  ---------------      ----- ------------  ---------------
     6      1.257701  1 O  s                 17     -0.969025  2 H  s          
    19     -0.968983  3 H  s                  8     -0.477464  1 O  py         
     4     -0.280694  1 O  py                 2      0.119307  1 O  s          
     1     -0.100642  1 O  s                 16     -0.096303  2 H  s          
    18     -0.096294  3 H  s                 15     -0.058035  1 O  dzz        

 Vector    7  Occ=0.000000D+00  E= 1.481054D-01
              MO Center= -1.4D-03, -5.7D-01, -3.4D-12, r^2= 2.5D+00
   Bfn.  Coefficient  Atom+Function         Bfn.  Coefficient  Atom+Function  
  ----- ------------  ---------------      ----- ------------  ---------------
    17      1.277632  2 H  s                 19     -1.277698  3 H  s          
     7     -0.758787  1 O  px                 3     -0.413472  1 O  px         
    16      0.107365  2 H  s                 18     -0.107364  3 H  s          
    11      0.031928  1 O  dxy        

 Vector    8  Occ=0.000000D+00  E= 7.724513D-01
              MO Center= -2.6D-04, -1.5D-01, -1.8D-11, r^2= 1.6D+00
   Bfn.  Coefficient  Atom+Function         Bfn.  Coefficient  Atom+Function  
  ----- ------------  ---------------      ----- ------------  ---------------
    16      0.840256  2 H  s                 18     -0.840166  3 H  s          
    17     -0.655489  2 H  s                 19      0.655398  3 H  s          
     7     -0.430290  1 O  px                11     -0.339535  1 O  dxy        
     3     -0.172282  1 O  px         

 Vector    9  Occ=0.000000D+00  E= 8.608804D-01
              MO Center= -5.4D-04, -2.1D-01, -1.2D-09, r^2= 1.3D+00
   Bfn.  Coefficient  Atom+Function         Bfn.  Coefficient  Atom+Function  
  ----- ------------  ---------------      ----- ------------  ---------------
    16      0.711949  2 H  s                 18      0.712047  3 H  s          
     4      0.707518  1 O  py                17     -0.552254  2 H  s          
    19     -0.552291  3 H  s                  8     -0.382808  1 O  py         
    10      0.153441  1 O  dxx                2     -0.135898  1 O  s          
     6      0.136021  1 O  s                 15     -0.119418  1 O  dzz        

 Vector   10  Occ=0.000000D+00  E= 8.907807D-01
              MO Center=  2.9D-04,  1.2D-01, -1.8D-09, r^2= 1.1D+00
   Bfn.  Coefficient  Atom+Function         Bfn.  Coefficient  Atom+Function  
  ----- ------------  ---------------      ----- ------------  ---------------
     9     -1.038624  1 O  pz                 5      0.959433  1 O  pz         
    14      0.028414  1 O  dyz        

 Vector   11  Occ=0.000000D+00  E= 8.950849D-01
              MO Center=  7.9D-04,  3.2D-01,  2.5D-09, r^2= 1.4D+00
   Bfn.  Coefficient  Atom+Function         Bfn.  Coefficient  Atom+Function  
  ----- ------------  ---------------      ----- ------------  ---------------
     6      1.409912  1 O  s                  2     -0.835974  1 O  s          
     8      0.827719  1 O  py                 4     -0.558768  1 O  py         
    16      0.467434  2 H  s                 18      0.467457  3 H  s          
    17     -0.373167  2 H  s                 19     -0.373153  3 H  s          
    15     -0.327393  1 O  dzz               13     -0.276906  1 O  dyy        

 Vector   12  Occ=0.000000D+00  E= 1.065778D+00
              MO Center=  2.4D-04,  1.0D-01, -3.3D-11, r^2= 1.5D+00
   Bfn.  Coefficient  Atom+Function         Bfn.  Coefficient  Atom+Function  
  ----- ------------  ---------------      ----- ------------  ---------------
     7      1.628099  1 O  px                 3     -0.989212  1 O  px         
    17     -0.926451  2 H  s                 19      0.926480  3 H  s          
    11      0.027827  1 O  dxy        

 Vector   13  Occ=0.000000D+00  E= 1.193421D+00
              MO Center= -8.5D-04, -3.7D-01,  6.4D-10, r^2= 1.4D+00
   Bfn.  Coefficient  Atom+Function         Bfn.  Coefficient  Atom+Function  
  ----- ------------  ---------------      ----- ------------  ---------------
     6      3.596601  1 O  s                  2     -1.457475  1 O  s          
     8     -1.105583  1 O  py                17     -0.773124  2 H  s          
    19     -0.773167  3 H  s                 10     -0.657516  1 O  dxx        
     4      0.402583  1 O  py                13     -0.393276  1 O  dyy        
    16     -0.352069  2 H  s                 18     -0.352065  3 H  s          

 Vector   14  Occ=0.000000D+00  E= 1.729117D+00
              MO Center=  4.2D-04,  1.7D-01, -7.1D-12, r^2= 6.2D-01
   Bfn.  Coefficient  Atom+Function         Bfn.  Coefficient  Atom+Function  
  ----- ------------  ---------------      ----- ------------  ---------------
    13      1.006954  1 O  dyy               10     -0.595853  1 O  dxx        
    15     -0.343982  1 O  dzz                6     -0.252395  1 O  s          
     8      0.143550  1 O  py                 2      0.090116  1 O  s          
    16      0.081724  2 H  s                 18      0.081723  3 H  s          
    17      0.042255  2 H  s                 19      0.042257  3 H  s          

 Vector   15  Occ=0.000000D+00  E= 1.746382D+00
              MO Center=  3.0D-04,  1.2D-01,  7.9D-11, r^2= 6.1D-01
   Bfn.  Coefficient  Atom+Function         Bfn.  Coefficient  Atom+Function  
  ----- ------------  ---------------      ----- ------------  ---------------
    12      1.732046  1 O  dxz        

 Vector   16  Occ=0.000000D+00  E= 1.779816D+00
              MO Center=  3.6D-04,  1.5D-01,  9.2D-11, r^2= 6.1D-01
   Bfn.  Coefficient  Atom+Function         Bfn.  Coefficient  Atom+Function  
  ----- ------------  ---------------      ----- ------------  ---------------
    14      1.730725  1 O  dyz                9      0.034996  1 O  pz         

 Vector   17  Occ=0.000000D+00  E= 2.280526D+00
              MO Center=  3.5D-05,  3.4D-03, -4.8D-11, r^2= 8.3D-01
   Bfn.  Coefficient  Atom+Function         Bfn.  Coefficient  Atom+Function  
  ----- ------------  ---------------      ----- ------------  ---------------
     6      1.538571  1 O  s                 15     -1.131099  1 O  dzz        
    16     -0.812258  2 H  s                 18     -0.812217  3 H  s          
     8     -0.738948  1 O  py                10      0.736264  1 O  dxx        
     2     -0.514829  1 O  s                 17     -0.141346  2 H  s          
    19     -0.141363  3 H  s                 13      0.070623  1 O  dyy        

 Vector   18  Occ=0.000000D+00  E= 2.577041D+00
              MO Center=  1.6D-04,  6.4D-02, -7.2D-12, r^2= 8.6D-01
   Bfn.  Coefficient  Atom+Function         Bfn.  Coefficient  Atom+Function  
  ----- ------------  ---------------      ----- ------------  ---------------
    11      2.203218  1 O  dxy               16      0.923357  2 H  s          
    18     -0.923439  3 H  s                  7     -0.842357  1 O  px         
    17     -0.050212  2 H  s                 19      0.050193  3 H  s          
     3      0.036984  1 O  px         

 Vector   19  Occ=0.000000D+00  E= 3.551888D+00
              MO Center=  3.0D-04,  1.2D-01,  2.4D-11, r^2= 1.0D+00
   Bfn.  Coefficient  Atom+Function         Bfn.  Coefficient  Atom+Function  
  ----- ------------  ---------------      ----- ------------  ---------------
     6      3.689424  1 O  s                 15     -1.578741  1 O  dzz        
    13     -1.549620  1 O  dyy               10     -1.526089  1 O  dxx        
    17     -0.554496  2 H  s                 19     -0.554512  3 H  s          
     1     -0.467944  1 O  s                  8     -0.333959  1 O  py         
     2      0.286729  1 O  s                  4      0.116598  1 O  py         


     ---------------------------------------------
      Total Density - Mulliken Population Analysis
     ---------------------------------------------

    Atom       Charge   Shell Charges
 -----------   ------   -------------------------------------------------------
    1 O    8     8.77   1.99  0.90  2.92  0.98  1.94  0.04
    2 H    1     0.61   0.48  0.14
    3 H    1     0.61   0.48  0.14

     -------------------------------------------
      Total Density - Lowdin Population Analysis
     -------------------------------------------

    Atom       Charge   Shell Charges
 -----------   ------   -------------------------------------------------------
    1 O    8     8.67   1.98  0.72  2.78  0.50  2.13  0.57
    2 H    1     0.66   0.44  0.22
    3 H    1     0.66   0.44  0.22

          -------------
          Dipole Moment
          -------------

 Center of charge (in au) is the expansion point
         X =       0.0000398 Y =       0.0017872 Z =      -0.0000000

   Dipole moment        0.8243656171 A.U.
             DMX       -0.0019259168 DMXEFC        0.0000000000
             DMY       -0.8243633674 DMYEFC        0.0000000000
             DMZ        0.0000000008 DMZEFC        0.0000000000
   -EFC- dipole         0.0000000000 A.U.
   Total dipole         0.8243656171 A.U.

   Dipole moment        2.0953442332 Debye(s)
             DMX       -0.0048952293 DMXEFC        0.0000000000
             DMY       -2.0953385150 DMYEFC        0.0000000000
             DMZ        0.0000000019 DMZEFC        0.0000000000
   -EFC- dipole         0.0000000000 DEBYE(S)
   Total dipole         2.0953442332 DEBYE(S)

 1 a.u. = 2.541766 Debyes 


                                NWChem Input Module
                                -------------------




                                     CITATION
                                     --------
                Please cite the following reference when publishing
                           results obtained with NWChem:

                 M. Valiev, E.J. Bylaska, N. Govind, K. Kowalski,
              T.P. Straatsma, H.J.J. van Dam, D. Wang, J. Nieplocha,
                        E. Apra, T.L. Windus, W.A. de Jong
                 "NWChem: a comprehensive and scalable open-source
                  solution for large scale molecular simulations"
                      Comput. Phys. Commun. 181, 1477 (2010)
                           doi:10.1016/j.cpc.2010.04.018

                                      AUTHORS
                                      -------
          E. Apra, E. J. Bylaska, W. A. de Jong, N. Govind, K. Kowalski,
       T. P. Straatsma, M. Valiev, H. J. J. van Dam, D. Wang, T. L. Windus,
        J. Hammond, J. Autschbach, K. Bhaskaran-Nair, J. Brabec, K. Lopata,
    S. A. Fischer, S. Krishnamoorthy, M. Jacquelin, W. Ma, M. Klemm, O. Villa,
      Y. Chen, V. Anisimov, F. Aquino, S. Hirata, M. T. Hackler, V. Konjkov,
            D. Mejia-Rodriguez, T. Risthaus, M. Malagoli, A. Marenich,
   A. Otero-de-la-Roza, J. Mullin, P. Nichols, R. Peverati, J. Pittner, Y. Zhao,
        P.-D. Fan, A. Fonari, M. J. Williamson, R. J. Harrison, J. R. Rehr,
      M. Dupuis, D. Silverstein, D. M. A. Smith, J. Nieplocha, V. Tipparaju,
    M. Krishnan, B. E. Van Kuiken, A. Vazquez-Mayagoitia, L. Jensen, M. Swart,
      Q. Wu, T. Van Voorhis, A. A. Auer, M. Nooijen, L. D. Crosby, E. Brown,
      G. Cisneros, G. I. Fann, H. Fruchtl, J. Garza, K. Hirao, R. A. Kendall,
      J. A. Nichols, K. Tsemekhman, K. Wolinski, J. Anchell, D. E. Bernholdt,
      P. Borowski, T. Clark, D. Clerc, H. Dachsel, M. J. O. Deegan, K. Dyall,
    D. Elwood, E. Glendening, M. Gutowski, A. C. Hess, J. Jaffe, B. G. Johnson,
     J. Ju, R. Kobayashi, R. Kutteh, Z. Lin, R. Littlefield, X. Long, B. Meng,
      T. Nakajima, S. Niu, L. Pollack, M. Rosing, K. Glaesemann, G. Sandrone,
      M. Stave, H. Taylor, G. Thomas, J. H. van Lenthe, A. T. Wong, Z. Zhang.

 Total times  cpu:        3.4s     wall:        7.0s
