--------------------------------------------------------------------------
[[4758,1],0]: A high-performance Open MPI point-to-point messaging module
was unable to find any relevant network interfaces:

Module: OpenFabrics (openib)
  Host: 2274251cca31

Another transport will be used instead, although this may result in
lower performance.
--------------------------------------------------------------------------
 argument  1 = cpd02820.nw



============================== echo of input deck ==============================
title "cpd02820"
start cpd02820

memory global 1600 mb heap 100 mb stack 600 mb

permanent_dir /kb/module/work/tmp/simulation/cpd02820/dft
#scratch_dir /scratch

echo
print low

charge 0
geometry noautoz noautosym
load /kb/module/work/tmp/simulation/cpd02820/dft/cpd02820.xyz
end
basis
* library 6-31G*
end

driver
 maxiter 50
xyz cpd02820_geom
end

set lindep:n_dep 0

dft
  maxiter 100
  xc b3lyp
  mulliken
  print "mulliken ao"
  print "final vectors analysis"
end

task dft optimize ignore
property
 dipole
end

task dft property
================================================================================


                                         
                                         


              Northwest Computational Chemistry Package (NWChem) 6.8
              ------------------------------------------------------


                    Environmental Molecular Sciences Laboratory
                       Pacific Northwest National Laboratory
                                Richland, WA 99352

                              Copyright (c) 1994-2017
                       Pacific Northwest National Laboratory
                            Battelle Memorial Institute

             NWChem is an open-source computational chemistry package
                        distributed under the terms of the
                      Educational Community License (ECL) 2.0
             A copy of the license is included with this distribution
                              in the LICENSE.TXT file

                                  ACKNOWLEDGMENT
                                  --------------

            This software and its documentation were developed at the
            EMSL at Pacific Northwest National Laboratory, a multiprogram
            national laboratory, operated for the U.S. Department of Energy
            by Battelle under Contract Number DE-AC05-76RL01830. Support
            for this work was provided by the Department of Energy Office
            of Biological and Environmental Research, Office of Basic
            Energy Sciences, and the Office of Advanced Scientific Computing.


           Job information
           ---------------

    hostname        = 2274251cca31
    program         = nwchem
    date            = Sun Mar  8 23:29:25 2020

    compiled        = Sat_Mar_07_21:45:49_2020
    source          = /codes/nwchem-6.8.1
    nwchem branch   = 6.8.1
    nwchem revision = v6.8-133-ge032219
    ga revision     = 5.6.5
    use scalapack   = F
    input           = cpd02820.nw
    prefix          = cpd02820.
    data base       = /kb/module/work/tmp/simulation/cpd02820/dft/cpd02820.db
    status          = startup
    nproc           =        2
    time left       =     -1s



           Memory information
           ------------------

    heap     =   13107200 doubles =    100.0 Mbytes
    stack    =   78643197 doubles =    600.0 Mbytes
    global   =  209715200 doubles =   1600.0 Mbytes (distinct from heap & stack)
    total    =  301465597 doubles =   2300.0 Mbytes
    verify   = yes
    hardfail = no 


           Directory information
           ---------------------

  0 permanent = /kb/module/work/tmp/simulation/cpd02820/dft
  0 scratch   = .




                                NWChem Input Module
                                -------------------


                                     cpd02820
                                     --------

 Scaling coordinates for geometry "geometry" by  1.889725989
 (inverse scale =  0.529177249)



                             Geometry "geometry" -> ""
                             -------------------------

 Output coordinates in angstroms (scale by  1.889725989 to convert to a.u.)

  No.       Tag          Charge          X              Y              Z
 ---- ---------------- ---------- -------------- -------------- --------------
    1 O                    8.0000     0.00101000     0.11934000     0.00000000
    2 H                    1.0000    -0.76749000    -0.47086000     0.00000000
    3 H                    1.0000     0.75941000    -0.48386000     0.00000000

      Atomic Mass 
      ----------- 

      O                 15.994910
      H                  1.007825


 Effective nuclear repulsion energy (a.u.)       9.0841989422

            Nuclear Dipole moment (a.u.) 
            ----------------------------
        X                 Y               Z
 ---------------- ---------------- ----------------
     0.0000000000    -0.0000000000     0.0000000000


            XYZ format geometry
            -------------------
     3
 geometry
 O                     0.00101000     0.11934000     0.00000000
 H                    -0.76749000    -0.47086000     0.00000000
 H                     0.75941000    -0.48386000     0.00000000

 ==============================================================================
                                internuclear distances
 ------------------------------------------------------------------------------
       center one      |      center two      | atomic units |  angstroms
 ------------------------------------------------------------------------------
    2 H                |   1 O                |     1.83111  |     0.96898
    3 H                |   1 O                |     1.83120  |     0.96903
 ------------------------------------------------------------------------------
                         number of included internuclear distances:          2
 ==============================================================================



 ==============================================================================
                                 internuclear angles
 ------------------------------------------------------------------------------
        center 1       |       center 2       |       center 3       |  degrees
 ------------------------------------------------------------------------------
    2 H                |   1 O                |   3 H                |   103.98
 ------------------------------------------------------------------------------
                            number of included internuclear angles:          1
 ==============================================================================



  library name resolved from: environment
  library file name is: </codes/nwchem-6.8.1/data/libraries/>
  


 Summary of "ao basis" -> "" (cartesian)
 ------------------------------------------------------------------------------
       Tag                 Description            Shells   Functions and Types
 ---------------- ------------------------------  ------  ---------------------
 *                           6-31G*                   on all atoms 




                           NWChem Geometry Optimization
                           ----------------------------




                                     cpd02820


 maximum gradient threshold         (gmax) =   0.000450
 rms gradient threshold             (grms) =   0.000300
 maximum cartesian step threshold   (xmax) =   0.001800
 rms cartesian step threshold       (xrms) =   0.001200
 fixed trust radius                (trust) =   0.300000
 maximum step size to saddle      (sadstp) =   0.100000
 energy precision                  (eprec) =   5.0D-06
 maximum number of steps          (nptopt) =   50
 initial hessian option           (inhess) =    0
 line search option               (linopt) =    1
 hessian update option            (modupd) =    1
 saddle point option              (modsad) =    0
 initial eigen-mode to follow     (moddir) =    0
 initial variable to follow       (vardir) =    0
 follow first negative mode     (firstneg) =    T
 apply conjugacy                    (opcg) =    F
 source of zmatrix                         =           


          -------------------
          Energy Minimization
          -------------------


 Using diagonal initial Hessian 

          --------
          Step   0
          --------

                                 NWChem DFT Module
                                 -----------------


                                     cpd02820


                      Basis "ao basis" -> "ao basis" (cartesian)
                      -----
  O (Oxygen)
  ----------
            Exponent  Coefficients 
       -------------- ---------------------------------------------------------
  1 S  5.48467170E+03  0.001831
  1 S  8.25234950E+02  0.013950
  1 S  1.88046960E+02  0.068445
  1 S  5.29645000E+01  0.232714
  1 S  1.68975700E+01  0.470193
  1 S  5.79963530E+00  0.358521

  2 S  1.55396160E+01 -0.110778
  2 S  3.59993360E+00 -0.148026
  2 S  1.01376180E+00  1.130767

  3 P  1.55396160E+01  0.070874
  3 P  3.59993360E+00  0.339753
  3 P  1.01376180E+00  0.727159

  4 S  2.70005800E-01  1.000000

  5 P  2.70005800E-01  1.000000

  6 D  8.00000000E-01  1.000000

  H (Hydrogen)
  ------------
            Exponent  Coefficients 
       -------------- ---------------------------------------------------------
  1 S  1.87311370E+01  0.033495
  1 S  2.82539370E+00  0.234727
  1 S  6.40121700E-01  0.813757

  2 S  1.61277800E-01  1.000000



 Summary of "ao basis" -> "ao basis" (cartesian)
 ------------------------------------------------------------------------------
       Tag                 Description            Shells   Functions and Types
 ---------------- ------------------------------  ------  ---------------------
 O                           6-31G*                  6       15   3s2p1d
 H                           6-31G*                  2        2   2s



  Caching 1-el integrals 
   Time after variat. SCF:      0.4

     ---------------------------------------------
      Total Density - Mulliken Population Analysis
     ---------------------------------------------

    Atom       Charge   Shell Charges
 -----------   ------   -------------------------------------------------------
    1 O    8     9.06   2.00  0.94  3.12  0.86  2.08  0.06
    2 H    1     0.47   0.36  0.11
    3 H    1     0.47   0.36  0.11
   Time prior to 1st pass:      0.4


         Total DFT energy =      -76.408951336224
      One electron energy =     -122.931026258787
           Coulomb energy =       46.780899072373
    Exchange-Corr. energy =       -9.343023091969
 Nuclear repulsion energy =        9.084198942159

 Numeric. integr. density =       10.000001205708

     Total iterative time =      0.7s



                       DFT Final Molecular Orbital Analysis
                       ------------------------------------

 Vector    1  Occ=2.000000D+00  E=-1.913804D+01
              MO Center=  1.0D-03,  1.2D-01, -2.9D-18, r^2= 1.5D-02
   Bfn.  Coefficient  Atom+Function         Bfn.  Coefficient  Atom+Function  
  ----- ------------  ---------------      ----- ------------  ---------------
     1      0.992860  1 O  s                  2      0.026223  1 O  s          

 Vector    2  Occ=2.000000D+00  E=-9.974687D-01
              MO Center= -7.6D-04, -8.7D-02,  5.7D-16, r^2= 5.1D-01
   Bfn.  Coefficient  Atom+Function         Bfn.  Coefficient  Atom+Function  
  ----- ------------  ---------------      ----- ------------  ---------------
     2      0.469321  1 O  s                  6      0.439865  1 O  s          
     1     -0.209565  1 O  s                 16      0.138991  2 H  s          
    18      0.138973  3 H  s                  4     -0.127242  1 O  py         
     8     -0.060509  1 O  py         

 Vector    3  Occ=2.000000D+00  E=-5.175827D-01
              MO Center= -9.1D-04, -1.1D-01,  2.3D-17, r^2= 7.9D-01
   Bfn.  Coefficient  Atom+Function         Bfn.  Coefficient  Atom+Function  
  ----- ------------  ---------------      ----- ------------  ---------------
     3      0.517202  1 O  px                 7      0.269505  1 O  px         
    16     -0.237577  2 H  s                 18      0.237574  3 H  s          
    17     -0.141645  2 H  s                 19      0.141651  3 H  s          
    11     -0.071290  1 O  dxy        

 Vector    4  Occ=2.000000D+00  E=-3.715244D-01
              MO Center=  1.7D-03,  2.0D-01, -7.5D-16, r^2= 7.0D-01
   Bfn.  Coefficient  Atom+Function         Bfn.  Coefficient  Atom+Function  
  ----- ------------  ---------------      ----- ------------  ---------------
     4      0.552199  1 O  py                 6      0.409579  1 O  s          
     8      0.372852  1 O  py                 2      0.176732  1 O  s          
    16     -0.143470  2 H  s                 18     -0.143479  3 H  s          
    17     -0.114261  2 H  s                 19     -0.114273  3 H  s          
     1     -0.087856  1 O  s                 13     -0.052302  1 O  dyy        

 Vector    5  Occ=2.000000D+00  E=-2.910564D-01
              MO Center=  8.3D-04,  9.9D-02, -9.0D-16, r^2= 6.0D-01
   Bfn.  Coefficient  Atom+Function         Bfn.  Coefficient  Atom+Function  
  ----- ------------  ---------------      ----- ------------  ---------------
     5      0.644549  1 O  pz                 9      0.506083  1 O  pz         
    14     -0.061203  1 O  dyz        

 Vector    6  Occ=0.000000D+00  E= 6.256666D-02
              MO Center= -5.1D-03, -6.2D-01,  2.1D-15, r^2= 2.4D+00
   Bfn.  Coefficient  Atom+Function         Bfn.  Coefficient  Atom+Function  
  ----- ------------  ---------------      ----- ------------  ---------------
     6      1.258080  1 O  s                 17     -0.969007  2 H  s          
    19     -0.969163  3 H  s                  8     -0.476346  1 O  py         
     4     -0.280245  1 O  py                 2      0.119598  1 O  s          
     1     -0.100777  1 O  s                 16     -0.096737  2 H  s          
    18     -0.096771  3 H  s                 15     -0.057995  1 O  dzz        

 Vector    7  Occ=0.000000D+00  E= 1.481038D-01
              MO Center= -5.0D-03, -5.7D-01,  2.4D-17, r^2= 2.5D+00
   Bfn.  Coefficient  Atom+Function         Bfn.  Coefficient  Atom+Function  
  ----- ------------  ---------------      ----- ------------  ---------------
    17      1.276741  2 H  s                 19     -1.276500  3 H  s          
     7      0.759404  1 O  px                 3      0.413461  1 O  px         
    16      0.106965  2 H  s                 18     -0.106968  3 H  s          
    11     -0.031994  1 O  dxy        

 Vector    8  Occ=0.000000D+00  E= 7.735584D-01
              MO Center= -9.9D-04, -1.5D-01, -2.1D-19, r^2= 1.6D+00
   Bfn.  Coefficient  Atom+Function         Bfn.  Coefficient  Atom+Function  
  ----- ------------  ---------------      ----- ------------  ---------------
    16      0.840369  2 H  s                 18     -0.840710  3 H  s          
    17     -0.654462  2 H  s                 19      0.654803  3 H  s          
     7      0.429263  1 O  px                11      0.340420  1 O  dxy        
     3      0.174562  1 O  px         

 Vector    9  Occ=0.000000D+00  E= 8.597479D-01
              MO Center= -2.2D-03, -2.3D-01, -7.6D-15, r^2= 1.3D+00
   Bfn.  Coefficient  Atom+Function         Bfn.  Coefficient  Atom+Function  
  ----- ------------  ---------------      ----- ------------  ---------------
    16      0.723503  2 H  s                 18      0.723129  3 H  s          
     4      0.692374  1 O  py                17     -0.559100  2 H  s          
    19     -0.558959  3 H  s                  8     -0.361342  1 O  py         
     6      0.158175  1 O  s                 10      0.152109  1 O  dxx        
     2     -0.150465  1 O  s                 15     -0.125173  1 O  dzz        

 Vector   10  Occ=0.000000D+00  E= 8.908629D-01
              MO Center=  9.8D-04,  1.2D-01, -6.6D-14, r^2= 1.1D+00
   Bfn.  Coefficient  Atom+Function         Bfn.  Coefficient  Atom+Function  
  ----- ------------  ---------------      ----- ------------  ---------------
     9     -1.038609  1 O  pz                 5      0.959454  1 O  pz         
    14      0.028294  1 O  dyz        

 Vector   11  Occ=0.000000D+00  E= 8.947769D-01
              MO Center=  2.9D-03,  3.4D-01,  7.4D-14, r^2= 1.4D+00
   Bfn.  Coefficient  Atom+Function         Bfn.  Coefficient  Atom+Function  
  ----- ------------  ---------------      ----- ------------  ---------------
     6      1.395617  1 O  s                  8      0.838969  1 O  py         
     2     -0.827445  1 O  s                  4     -0.576978  1 O  py         
    16      0.451705  2 H  s                 18      0.451626  3 H  s          
    17     -0.359147  2 H  s                 19     -0.359197  3 H  s          
    15     -0.322822  1 O  dzz               13     -0.276162  1 O  dyy        

 Vector   12  Occ=0.000000D+00  E= 1.066025D+00
              MO Center=  8.1D-04,  1.0D-01,  4.2D-16, r^2= 1.5D+00
   Bfn.  Coefficient  Atom+Function         Bfn.  Coefficient  Atom+Function  
  ----- ------------  ---------------      ----- ------------  ---------------
     7      1.630310  1 O  px                 3     -0.988999  1 O  px         
    17      0.925082  2 H  s                 19     -0.924977  3 H  s          
    11      0.029605  1 O  dxy        

 Vector   13  Occ=0.000000D+00  E= 1.192184D+00
              MO Center= -3.2D-03, -3.7D-01, -1.9D-15, r^2= 1.4D+00
   Bfn.  Coefficient  Atom+Function         Bfn.  Coefficient  Atom+Function  
  ----- ------------  ---------------      ----- ------------  ---------------
     6      3.600831  1 O  s                  2     -1.461028  1 O  s          
     8     -1.100250  1 O  py                17     -0.775800  2 H  s          
    19     -0.775640  3 H  s                 10     -0.657490  1 O  dxx        
     4      0.402734  1 O  py                13     -0.392773  1 O  dyy        
    16     -0.347033  2 H  s                 18     -0.347047  3 H  s          

 Vector   14  Occ=0.000000D+00  E= 1.730140D+00
              MO Center=  1.4D-03,  1.7D-01,  5.8D-16, r^2= 6.2D-01
   Bfn.  Coefficient  Atom+Function         Bfn.  Coefficient  Atom+Function  
  ----- ------------  ---------------      ----- ------------  ---------------
    13      1.007861  1 O  dyy               10     -0.590625  1 O  dxx        
    15     -0.349899  1 O  dzz                6     -0.253096  1 O  s          
     8      0.143463  1 O  py                 2      0.090350  1 O  s          
    16      0.082295  2 H  s                 18      0.082297  3 H  s          
    17      0.042178  2 H  s                 19      0.042170  3 H  s          

 Vector   15  Occ=0.000000D+00  E= 1.746191D+00
              MO Center=  1.0D-03,  1.2D-01, -3.3D-16, r^2= 6.1D-01
   Bfn.  Coefficient  Atom+Function         Bfn.  Coefficient  Atom+Function  
  ----- ------------  ---------------      ----- ------------  ---------------
    12      1.731989  1 O  dxz        

 Vector   16  Occ=0.000000D+00  E= 1.780242D+00
              MO Center=  1.2D-03,  1.4D-01, -1.5D-16, r^2= 6.1D-01
   Bfn.  Coefficient  Atom+Function         Bfn.  Coefficient  Atom+Function  
  ----- ------------  ---------------      ----- ------------  ---------------
    14      1.730676  1 O  dyz                9      0.034876  1 O  pz         

 Vector   17  Occ=0.000000D+00  E= 2.280325D+00
              MO Center=  5.8D-05,  3.2D-03,  1.8D-17, r^2= 8.3D-01
   Bfn.  Coefficient  Atom+Function         Bfn.  Coefficient  Atom+Function  
  ----- ------------  ---------------      ----- ------------  ---------------
     6      1.533713  1 O  s                 15     -1.128756  1 O  dzz        
    16     -0.810775  2 H  s                 18     -0.810928  3 H  s          
    10      0.741849  1 O  dxx                8     -0.734562  1 O  py         
     2     -0.513478  1 O  s                 17     -0.140202  2 H  s          
    19     -0.140141  3 H  s                 13      0.063560  1 O  dyy        

 Vector   18  Occ=0.000000D+00  E= 2.577137D+00
              MO Center=  5.1D-04,  6.3D-02, -5.0D-18, r^2= 8.7D-01
   Bfn.  Coefficient  Atom+Function         Bfn.  Coefficient  Atom+Function  
  ----- ------------  ---------------      ----- ------------  ---------------
    11      2.201995  1 O  dxy               16     -0.924075  2 H  s          
    18      0.923772  3 H  s                  7     -0.846350  1 O  px         
    17      0.048755  2 H  s                 19     -0.048827  3 H  s          
     3      0.037772  1 O  px         

 Vector   19  Occ=0.000000D+00  E= 3.552346D+00
              MO Center=  1.0D-03,  1.2D-01,  6.9D-17, r^2= 1.0D+00
   Bfn.  Coefficient  Atom+Function         Bfn.  Coefficient  Atom+Function  
  ----- ------------  ---------------      ----- ------------  ---------------
     6      3.689925  1 O  s                 15     -1.578676  1 O  dzz        
    13     -1.550008  1 O  dyy               10     -1.526229  1 O  dxx        
    17     -0.554947  2 H  s                 19     -0.554888  3 H  s          
     1     -0.467973  1 O  s                  8     -0.332745  1 O  py         
     2      0.286624  1 O  s                  4      0.116253  1 O  py         


     ---------------------------------------------
      Total Density - Mulliken Population Analysis
     ---------------------------------------------

    Atom       Charge   Shell Charges
 -----------   ------   -------------------------------------------------------
    1 O    8     8.77   1.99  0.90  2.92  0.98  1.94  0.04
    2 H    1     0.61   0.48  0.14
    3 H    1     0.61   0.48  0.14

     -------------------------------------------
      Total Density - Lowdin Population Analysis
     -------------------------------------------

    Atom       Charge   Shell Charges
 -----------   ------   -------------------------------------------------------
    1 O    8     8.67   1.98  0.72  2.78  0.50  2.13  0.57
    2 H    1     0.66   0.44  0.22
    3 H    1     0.66   0.44  0.22


                         DFT ENERGY GRADIENTS

    atom               coordinates                        gradient
                 x          y          z           x          y          z
   1 O       0.001909   0.225520   0.000000   -0.000040  -0.000360  -0.000000
   2 H      -1.450346  -0.889796   0.000000   -0.000674   0.000201   0.000000
   3 H       1.435077  -0.914363   0.000000    0.000714   0.000160  -0.000000


@ Step       Energy      Delta E   Gmax     Grms     Xrms     Xmax   Walltime
@ ---- ---------------- -------- -------- -------- -------- -------- --------
@    0     -76.40895134  0.0D+00  0.00071  0.00036  0.00000  0.00000      1.9
                                                                    


                                 NWChem DFT Module
                                 -----------------


                                     cpd02820



  Caching 1-el integrals 
   Time after variat. SCF:      2.0

     ---------------------------------------------
      Total Density - Mulliken Population Analysis
     ---------------------------------------------

    Atom       Charge   Shell Charges
 -----------   ------   -------------------------------------------------------
    1 O    8     8.77   1.99  0.90  2.92  0.98  1.94  0.04
    2 H    1     0.61   0.48  0.14
    3 H    1     0.61   0.48  0.14
   Time prior to 1st pass:      2.0


         Total DFT energy =      -76.408951044964
      One electron energy =     -122.926993106751
           Coulomb energy =       46.777285709523
    Exchange-Corr. energy =       -9.342718747939
 Nuclear repulsion energy =        9.083475100203

 Numeric. integr. density =       10.000000977519

     Total iterative time =      0.5s



                       DFT Final Molecular Orbital Analysis
                       ------------------------------------

 Vector    1  Occ=2.000000D+00  E=-1.913845D+01
              MO Center=  1.1D-03,  1.2D-01,  8.9D-20, r^2= 1.5D-02
   Bfn.  Coefficient  Atom+Function         Bfn.  Coefficient  Atom+Function  
  ----- ------------  ---------------      ----- ------------  ---------------
     1      0.992861  1 O  s                  2      0.026225  1 O  s          

 Vector    2  Occ=2.000000D+00  E=-9.979669D-01
              MO Center= -7.1D-04, -8.6D-02, -3.9D-16, r^2= 5.1D-01
   Bfn.  Coefficient  Atom+Function         Bfn.  Coefficient  Atom+Function  
  ----- ------------  ---------------      ----- ------------  ---------------
     2      0.469135  1 O  s                  6      0.439547  1 O  s          
     1     -0.209461  1 O  s                 16      0.139118  2 H  s          
    18      0.139125  3 H  s                  4     -0.127976  1 O  py         
     8     -0.060856  1 O  py         

 Vector    3  Occ=2.000000D+00  E=-5.163358D-01
              MO Center= -9.1D-04, -1.1D-01, -1.1D-18, r^2= 7.9D-01
   Bfn.  Coefficient  Atom+Function         Bfn.  Coefficient  Atom+Function  
  ----- ------------  ---------------      ----- ------------  ---------------
     3      0.517530  1 O  px                 7      0.270157  1 O  px         
    16     -0.237215  2 H  s                 18      0.237216  3 H  s          
    17     -0.142467  2 H  s                 19      0.142465  3 H  s          
    11     -0.071640  1 O  dxy        

 Vector    4  Occ=2.000000D+00  E=-3.729092D-01
              MO Center=  1.7D-03,  2.0D-01,  4.9D-16, r^2= 7.0D-01
   Bfn.  Coefficient  Atom+Function         Bfn.  Coefficient  Atom+Function  
  ----- ------------  ---------------      ----- ------------  ---------------
     4      0.551262  1 O  py                 6      0.411228  1 O  s          
     8      0.371307  1 O  py                 2      0.177774  1 O  s          
    16     -0.144099  2 H  s                 18     -0.144096  3 H  s          
    17     -0.114534  2 H  s                 19     -0.114530  3 H  s          
     1     -0.088335  1 O  s                 13     -0.052504  1 O  dyy        

 Vector    5  Occ=2.000000D+00  E=-2.912736D-01
              MO Center=  8.8D-04,  1.0D-01, -2.8D-16, r^2= 6.0D-01
   Bfn.  Coefficient  Atom+Function         Bfn.  Coefficient  Atom+Function  
  ----- ------------  ---------------      ----- ------------  ---------------
     5      0.644633  1 O  pz                 9      0.505985  1 O  pz         
    14     -0.061484  1 O  dyz        

 Vector    6  Occ=0.000000D+00  E= 6.239922D-02
              MO Center= -5.3D-03, -6.2D-01, -4.7D-17, r^2= 2.4D+00
   Bfn.  Coefficient  Atom+Function         Bfn.  Coefficient  Atom+Function  
  ----- ------------  ---------------      ----- ------------  ---------------
     6      1.255620  1 O  s                 17     -0.968163  2 H  s          
    19     -0.968109  3 H  s                  8     -0.478747  1 O  py         
     4     -0.281528  1 O  py                 2      0.119072  1 O  s          
     1     -0.100459  1 O  s                 16     -0.096063  2 H  s          
    18     -0.096052  3 H  s                 15     -0.057999  1 O  dzz        

 Vector    7  Occ=0.000000D+00  E= 1.478345D-01
              MO Center= -4.7D-03, -5.7D-01,  9.9D-19, r^2= 2.5D+00
   Bfn.  Coefficient  Atom+Function         Bfn.  Coefficient  Atom+Function  
  ----- ------------  ---------------      ----- ------------  ---------------
    17      1.277102  2 H  s                 19     -1.277186  3 H  s          
     7      0.757654  1 O  px                 3      0.413708  1 O  px         
    16      0.108061  2 H  s                 18     -0.108060  3 H  s          
    11     -0.031770  1 O  dxy        

 Vector    8  Occ=0.000000D+00  E= 7.709193D-01
              MO Center= -1.4D-03, -1.5D-01,  1.7D-16, r^2= 1.6D+00
   Bfn.  Coefficient  Atom+Function         Bfn.  Coefficient  Atom+Function  
  ----- ------------  ---------------      ----- ------------  ---------------
    16      0.839840  2 H  s                 18     -0.839729  3 H  s          
    17     -0.658642  2 H  s                 19      0.658529  3 H  s          
     7      0.428267  1 O  px                11      0.338500  1 O  dxy        
     3      0.170449  1 O  px         

 Vector    9  Occ=0.000000D+00  E= 8.613293D-01
              MO Center= -1.6D-03, -2.0D-01,  7.3D-15, r^2= 1.3D+00
   Bfn.  Coefficient  Atom+Function         Bfn.  Coefficient  Atom+Function  
  ----- ------------  ---------------      ----- ------------  ---------------
     4      0.718609  1 O  py                16      0.703077  2 H  s          
    18      0.703199  3 H  s                 17     -0.548177  2 H  s          
    19     -0.548222  3 H  s                  8     -0.399453  1 O  py         
    10      0.153472  1 O  dxx                2     -0.125824  1 O  s          
     6      0.122879  1 O  s                 15     -0.115260  1 O  dzz        

 Vector   10  Occ=0.000000D+00  E= 8.906953D-01
              MO Center=  1.0D-03,  1.2D-01,  1.0D-14, r^2= 1.1D+00
   Bfn.  Coefficient  Atom+Function         Bfn.  Coefficient  Atom+Function  
  ----- ------------  ---------------      ----- ------------  ---------------
     9     -1.038649  1 O  pz                 5      0.959398  1 O  pz         
    14      0.028549  1 O  dyz        

 Vector   11  Occ=0.000000D+00  E= 8.953559D-01
              MO Center=  2.7D-03,  3.1D-01, -1.7D-14, r^2= 1.5D+00
   Bfn.  Coefficient  Atom+Function         Bfn.  Coefficient  Atom+Function  
  ----- ------------  ---------------      ----- ------------  ---------------
     6      1.426824  1 O  s                  2     -0.844668  1 O  s          
     8      0.816973  1 O  py                 4     -0.544271  1 O  py         
    16      0.478149  2 H  s                 18      0.478179  3 H  s          
    17     -0.384563  2 H  s                 19     -0.384545  3 H  s          
    15     -0.331423  1 O  dzz               13     -0.277783  1 O  dyy        

 Vector   12  Occ=0.000000D+00  E= 1.065334D+00
              MO Center=  9.1D-04,  1.0D-01,  4.3D-17, r^2= 1.5D+00
   Bfn.  Coefficient  Atom+Function         Bfn.  Coefficient  Atom+Function  
  ----- ------------  ---------------      ----- ------------  ---------------
     7      1.625327  1 O  px                 3     -0.989097  1 O  px         
    17      0.926058  2 H  s                 19     -0.926097  3 H  s          
    11      0.026976  1 O  dxy        

 Vector   13  Occ=0.000000D+00  E= 1.194668D+00
              MO Center= -3.1D-03, -3.6D-01,  1.7D-17, r^2= 1.4D+00
   Bfn.  Coefficient  Atom+Function         Bfn.  Coefficient  Atom+Function  
  ----- ------------  ---------------      ----- ------------  ---------------
     6      3.588479  1 O  s                  2     -1.452735  1 O  s          
     8     -1.111388  1 O  py                17     -0.768999  2 H  s          
    19     -0.769053  3 H  s                 10     -0.657333  1 O  dxx        
     4      0.403011  1 O  py                13     -0.393901  1 O  dyy        
    16     -0.357762  2 H  s                 18     -0.357757  3 H  s          

 Vector   14  Occ=0.000000D+00  E= 1.728173D+00
              MO Center=  1.5D-03,  1.7D-01,  2.4D-17, r^2= 6.2D-01
   Bfn.  Coefficient  Atom+Function         Bfn.  Coefficient  Atom+Function  
  ----- ------------  ---------------      ----- ------------  ---------------
    13      1.005655  1 O  dyy               10     -0.601468  1 O  dxx        
    15     -0.337392  1 O  dzz                6     -0.250991  1 O  s          
     8      0.143399  1 O  py                 2      0.089728  1 O  s          
    16      0.080914  2 H  s                 18      0.080913  3 H  s          
    17      0.042199  2 H  s                 19      0.042202  3 H  s          

 Vector   15  Occ=0.000000D+00  E= 1.746758D+00
              MO Center=  1.1D-03,  1.2D-01, -4.1D-16, r^2= 6.1D-01
   Bfn.  Coefficient  Atom+Function         Bfn.  Coefficient  Atom+Function  
  ----- ------------  ---------------      ----- ------------  ---------------
    12      1.731988  1 O  dxz        

 Vector   16  Occ=0.000000D+00  E= 1.779465D+00
              MO Center=  1.3D-03,  1.5D-01, -1.3D-16, r^2= 6.1D-01
   Bfn.  Coefficient  Atom+Function         Bfn.  Coefficient  Atom+Function  
  ----- ------------  ---------------      ----- ------------  ---------------
    14      1.730661  1 O  dyz                9      0.035109  1 O  pz         

 Vector   17  Occ=0.000000D+00  E= 2.279890D+00
              MO Center=  3.8D-05,  3.9D-03,  2.6D-17, r^2= 8.3D-01
   Bfn.  Coefficient  Atom+Function         Bfn.  Coefficient  Atom+Function  
  ----- ------------  ---------------      ----- ------------  ---------------
     6      1.540835  1 O  s                 15     -1.133279  1 O  dzz        
    16     -0.812362  2 H  s                 18     -0.812309  3 H  s          
     8     -0.742540  1 O  py                10      0.729704  1 O  dxx        
     2     -0.516252  1 O  s                 17     -0.141959  2 H  s          
    19     -0.141981  3 H  s                 13      0.078501  1 O  dyy        

 Vector   18  Occ=0.000000D+00  E= 2.575569D+00
              MO Center=  5.9D-04,  6.6D-02,  1.7D-18, r^2= 8.6D-01
   Bfn.  Coefficient  Atom+Function         Bfn.  Coefficient  Atom+Function  
  ----- ------------  ---------------      ----- ------------  ---------------
    11      2.202351  1 O  dxy               16     -0.921276  2 H  s          
    18      0.921382  3 H  s                  7     -0.836488  1 O  px         
    17      0.052297  2 H  s                 19     -0.052272  3 H  s          
     3      0.036960  1 O  px         

 Vector   19  Occ=0.000000D+00  E= 3.550995D+00
              MO Center=  1.1D-03,  1.2D-01, -2.1D-17, r^2= 1.0D+00
   Bfn.  Coefficient  Atom+Function         Bfn.  Coefficient  Atom+Function  
  ----- ------------  ---------------      ----- ------------  ---------------
     6      3.687050  1 O  s                 15     -1.578737  1 O  dzz        
    13     -1.548840  1 O  dyy               10     -1.525442  1 O  dxx        
    17     -0.553404  2 H  s                 19     -0.553424  3 H  s          
     1     -0.467837  1 O  s                  8     -0.335206  1 O  py         
     2      0.287289  1 O  s                  4      0.116816  1 O  py         


     ---------------------------------------------
      Total Density - Mulliken Population Analysis
     ---------------------------------------------

    Atom       Charge   Shell Charges
 -----------   ------   -------------------------------------------------------
    1 O    8     8.77   1.99  0.90  2.92  0.98  1.94  0.04
    2 H    1     0.61   0.48  0.14
    3 H    1     0.61   0.48  0.14

     -------------------------------------------
      Total Density - Lowdin Population Analysis
     -------------------------------------------

    Atom       Charge   Shell Charges
 -----------   ------   -------------------------------------------------------
    1 O    8     8.67   1.98  0.72  2.78  0.50  2.13  0.57
    2 H    1     0.66   0.44  0.22
    3 H    1     0.66   0.44  0.22
 Line search: 
     step= 1.00 grad=-1.2D-05 hess= 1.2D-05 energy=    -76.408951 mode=accept  
 new step= 1.00                   predicted energy=    -76.408951

          --------
          Step   1
          --------

                                 NWChem DFT Module
                                 -----------------


                                     cpd02820




  The DFT is already converged 

         Total DFT energy =    -76.408951044964



                         DFT ENERGY GRADIENTS

    atom               coordinates                        gradient
                 x          y          z           x          y          z
   1 O       0.002001   0.231403   0.000000    0.000024   0.001269  -0.000000
   2 H      -1.444054  -0.892808  -0.000000    0.000098  -0.000641   0.000000
   3 H       1.428692  -0.917233   0.000000   -0.000122  -0.000628  -0.000000


  Step       Energy      Delta E   Gmax     Grms     Xrms     Xmax   Walltime
  ---- ---------------- -------- -------- -------- -------- -------- --------
@    1     -76.40895104  2.9D-07  0.00127  0.00052  0.00383  0.00638      3.2
                                                                    


                                 NWChem DFT Module
                                 -----------------


                                     cpd02820



  Caching 1-el integrals 
   Time after variat. SCF:      3.3

     ---------------------------------------------
      Total Density - Mulliken Population Analysis
     ---------------------------------------------

    Atom       Charge   Shell Charges
 -----------   ------   -------------------------------------------------------
    1 O    8     8.77   1.99  0.90  2.92  0.98  1.94  0.04
    2 H    1     0.61   0.48  0.14
    3 H    1     0.61   0.48  0.14
   Time prior to 1st pass:      3.3


         Total DFT energy =      -76.408954505753
      One electron energy =     -122.937957552265
           Coulomb energy =       46.783680975533
    Exchange-Corr. energy =       -9.343399266482
 Nuclear repulsion energy =        9.088721337460

 Numeric. integr. density =       10.000001095752

     Total iterative time =      0.5s



                       DFT Final Molecular Orbital Analysis
                       ------------------------------------

 Vector    1  Occ=2.000000D+00  E=-1.913815D+01
              MO Center=  1.0D-03,  1.2D-01, -1.8D-16, r^2= 1.5D-02
   Bfn.  Coefficient  Atom+Function         Bfn.  Coefficient  Atom+Function  
  ----- ------------  ---------------      ----- ------------  ---------------
     1      0.992860  1 O  s                  2      0.026224  1 O  s          

 Vector    2  Occ=2.000000D+00  E=-9.979288D-01
              MO Center= -7.2D-04, -8.7D-02, -3.9D-14, r^2= 5.1D-01
   Bfn.  Coefficient  Atom+Function         Bfn.  Coefficient  Atom+Function  
  ----- ------------  ---------------      ----- ------------  ---------------
     2      0.469210  1 O  s                  6      0.439474  1 O  s          
     1     -0.209498  1 O  s                 16      0.139163  2 H  s          
    18      0.139168  3 H  s                  4     -0.127705  1 O  py         
     8     -0.060644  1 O  py         

 Vector    3  Occ=2.000000D+00  E=-5.171820D-01
              MO Center= -9.2D-04, -1.1D-01, -8.5D-15, r^2= 7.9D-01
   Bfn.  Coefficient  Atom+Function         Bfn.  Coefficient  Atom+Function  
  ----- ------------  ---------------      ----- ------------  ---------------
     3      0.517434  1 O  px                 7      0.269734  1 O  px         
    16     -0.237447  2 H  s                 18      0.237448  3 H  s          
    17     -0.141929  2 H  s                 19      0.141928  3 H  s          
    11     -0.071476  1 O  dxy        

 Vector    4  Occ=2.000000D+00  E=-3.722193D-01
              MO Center=  1.7D-03,  2.0D-01,  8.4D-14, r^2= 7.0D-01
   Bfn.  Coefficient  Atom+Function         Bfn.  Coefficient  Atom+Function  
  ----- ------------  ---------------      ----- ------------  ---------------
     4      0.551808  1 O  py                 6      0.410439  1 O  s          
     8      0.372143  1 O  py                 2      0.177260  1 O  s          
    16     -0.143723  2 H  s                 18     -0.143720  3 H  s          
    17     -0.114251  2 H  s                 19     -0.114247  3 H  s          
     1     -0.088099  1 O  s                 13     -0.052423  1 O  dyy        

 Vector    5  Occ=2.000000D+00  E=-2.911965D-01
              MO Center=  8.7D-04,  1.0D-01, -2.8D-13, r^2= 6.0D-01
   Bfn.  Coefficient  Atom+Function         Bfn.  Coefficient  Atom+Function  
  ----- ------------  ---------------      ----- ------------  ---------------
     5      0.644577  1 O  pz                 9      0.506049  1 O  pz         
    14     -0.061385  1 O  dyz        

 Vector    6  Occ=0.000000D+00  E= 6.263260D-02
              MO Center= -5.3D-03, -6.2D-01, -4.3D-13, r^2= 2.4D+00
   Bfn.  Coefficient  Atom+Function         Bfn.  Coefficient  Atom+Function  
  ----- ------------  ---------------      ----- ------------  ---------------
     6      1.258041  1 O  s                 17     -0.969184  2 H  s          
    19     -0.969141  3 H  s                  8     -0.477428  1 O  py         
     4     -0.280610  1 O  py                 2      0.119291  1 O  s          
     1     -0.100649  1 O  s                 16     -0.096250  2 H  s          
    18     -0.096241  3 H  s                 15     -0.058051  1 O  dzz        

 Vector    7  Occ=0.000000D+00  E= 1.481624D-01
              MO Center= -4.8D-03, -5.7D-01, -7.4D-16, r^2= 2.5D+00
   Bfn.  Coefficient  Atom+Function         Bfn.  Coefficient  Atom+Function  
  ----- ------------  ---------------      ----- ------------  ---------------
    17      1.277979  2 H  s                 19     -1.278045  3 H  s          
     7      0.758844  1 O  px                 3      0.413405  1 O  px         
    16      0.107312  2 H  s                 18     -0.107311  3 H  s          
    11     -0.031939  1 O  dxy        

 Vector    8  Occ=0.000000D+00  E= 7.725207D-01
              MO Center= -1.4D-03, -1.5D-01, -6.7D-16, r^2= 1.6D+00
   Bfn.  Coefficient  Atom+Function         Bfn.  Coefficient  Atom+Function  
  ----- ------------  ---------------      ----- ------------  ---------------
    16      0.840271  2 H  s                 18     -0.840179  3 H  s          
    17     -0.655029  2 H  s                 19      0.654936  3 H  s          
     7      0.430912  1 O  px                11      0.339486  1 O  dxy        
     3      0.172139  1 O  px         

 Vector    9  Occ=0.000000D+00  E= 8.610359D-01
              MO Center= -1.7D-03, -2.1D-01, -8.0D-12, r^2= 1.3D+00
   Bfn.  Coefficient  Atom+Function         Bfn.  Coefficient  Atom+Function  
  ----- ------------  ---------------      ----- ------------  ---------------
     4      0.708601  1 O  py                16      0.711099  2 H  s          
    18      0.711199  3 H  s                 17     -0.551458  2 H  s          
    19     -0.551495  3 H  s                  8     -0.384250  1 O  py         
    10      0.153745  1 O  dxx                2     -0.134522  1 O  s          
     6      0.133439  1 O  s                 15     -0.118906  1 O  dzz        

 Vector   10  Occ=0.000000D+00  E= 8.907800D-01
              MO Center=  1.0D-03,  1.2D-01,  4.0D-11, r^2= 1.1D+00
   Bfn.  Coefficient  Atom+Function         Bfn.  Coefficient  Atom+Function  
  ----- ------------  ---------------      ----- ------------  ---------------
     9     -1.038622  1 O  pz                 5      0.959436  1 O  pz         
    14      0.028412  1 O  dyz        

 Vector   11  Occ=0.000000D+00  E= 8.951023D-01
              MO Center=  2.7D-03,  3.2D-01, -2.9D-11, r^2= 1.4D+00
   Bfn.  Coefficient  Atom+Function         Bfn.  Coefficient  Atom+Function  
  ----- ------------  ---------------      ----- ------------  ---------------
     6      1.409628  1 O  s                  2     -0.836082  1 O  s          
     8      0.827205  1 O  py                 4     -0.557465  1 O  py         
    16      0.468818  2 H  s                 18      0.468841  3 H  s          
    17     -0.374024  2 H  s                 19     -0.374010  3 H  s          
    15     -0.327591  1 O  dzz               13     -0.276851  1 O  dyy        

 Vector   12  Occ=0.000000D+00  E= 1.065815D+00
              MO Center=  8.9D-04,  1.0D-01,  4.0D-15, r^2= 1.5D+00
   Bfn.  Coefficient  Atom+Function         Bfn.  Coefficient  Atom+Function  
  ----- ------------  ---------------      ----- ------------  ---------------
     7      1.628096  1 O  px                 3     -0.989236  1 O  px         
    17      0.926857  2 H  s                 19     -0.926887  3 H  s          
    11      0.027600  1 O  dxy        

 Vector   13  Occ=0.000000D+00  E= 1.193447D+00
              MO Center= -3.1D-03, -3.7D-01, -2.4D-12, r^2= 1.4D+00
   Bfn.  Coefficient  Atom+Function         Bfn.  Coefficient  Atom+Function  
  ----- ------------  ---------------      ----- ------------  ---------------
     6      3.597300  1 O  s                  2     -1.457641  1 O  s          
     8     -1.105533  1 O  py                17     -0.773387  2 H  s          
    19     -0.773431  3 H  s                 10     -0.657522  1 O  dxx        
     4      0.402436  1 O  py                13     -0.393298  1 O  dyy        
    16     -0.352029  2 H  s                 18     -0.352025  3 H  s          

 Vector   14  Occ=0.000000D+00  E= 1.729081D+00
              MO Center=  1.5D-03,  1.7D-01, -3.1D-15, r^2= 6.2D-01
   Bfn.  Coefficient  Atom+Function         Bfn.  Coefficient  Atom+Function  
  ----- ------------  ---------------      ----- ------------  ---------------
    13      1.006850  1 O  dyy               10     -0.595728  1 O  dxx        
    15     -0.343993  1 O  dzz                6     -0.252499  1 O  s          
     8      0.143580  1 O  py                 2      0.090134  1 O  s          
    16      0.081752  2 H  s                 18      0.081751  3 H  s          
    17      0.042281  2 H  s                 19      0.042283  3 H  s          

 Vector   15  Occ=0.000000D+00  E= 1.746348D+00
              MO Center=  1.0D-03,  1.2D-01,  1.7D-15, r^2= 6.1D-01
   Bfn.  Coefficient  Atom+Function         Bfn.  Coefficient  Atom+Function  
  ----- ------------  ---------------      ----- ------------  ---------------
    12      1.731988  1 O  dxz        

 Vector   16  Occ=0.000000D+00  E= 1.779792D+00
              MO Center=  1.3D-03,  1.5D-01,  1.1D-14, r^2= 6.1D-01
   Bfn.  Coefficient  Atom+Function         Bfn.  Coefficient  Atom+Function  
  ----- ------------  ---------------      ----- ------------  ---------------
    14      1.730666  1 O  dyz                9      0.035000  1 O  pz         

 Vector   17  Occ=0.000000D+00  E= 2.280714D+00
              MO Center=  3.4D-05,  3.3D-03, -3.4D-15, r^2= 8.3D-01
   Bfn.  Coefficient  Atom+Function         Bfn.  Coefficient  Atom+Function  
  ----- ------------  ---------------      ----- ------------  ---------------
     6      1.539211  1 O  s                 15     -1.131175  1 O  dzz        
    16     -0.812561  2 H  s                 18     -0.812519  3 H  s          
     8     -0.739170  1 O  py                10      0.736278  1 O  dxx        
     2     -0.514841  1 O  s                 17     -0.141485  2 H  s          
    19     -0.141502  3 H  s                 13      0.070662  1 O  dyy        

 Vector   18  Occ=0.000000D+00  E= 2.577312D+00
              MO Center=  5.7D-04,  6.4D-02,  4.2D-15, r^2= 8.6D-01
   Bfn.  Coefficient  Atom+Function         Bfn.  Coefficient  Atom+Function  
  ----- ------------  ---------------      ----- ------------  ---------------
    11      2.203243  1 O  dxy               16     -0.923660  2 H  s          
    18      0.923744  3 H  s                  7     -0.842627  1 O  px         
    17      0.050098  2 H  s                 19     -0.050077  3 H  s          
     3      0.036810  1 O  px         

 Vector   19  Occ=0.000000D+00  E= 3.551967D+00
              MO Center=  1.0D-03,  1.2D-01, -5.6D-14, r^2= 1.0D+00
   Bfn.  Coefficient  Atom+Function         Bfn.  Coefficient  Atom+Function  
  ----- ------------  ---------------      ----- ------------  ---------------
     6      3.689793  1 O  s                 15     -1.578755  1 O  dzz        
    13     -1.549690  1 O  dyy               10     -1.526195  1 O  dxx        
    17     -0.554626  2 H  s                 19     -0.554642  3 H  s          
     1     -0.467959  1 O  s                  8     -0.333958  1 O  py         
     2      0.286639  1 O  s                  4      0.116625  1 O  py         


     ---------------------------------------------
      Total Density - Mulliken Population Analysis
     ---------------------------------------------

    Atom       Charge   Shell Charges
 -----------   ------   -------------------------------------------------------
    1 O    8     8.77   1.99  0.90  2.92  0.98  1.94  0.04
    2 H    1     0.61   0.48  0.14
    3 H    1     0.61   0.48  0.14

     -------------------------------------------
      Total Density - Lowdin Population Analysis
     -------------------------------------------

    Atom       Charge   Shell Charges
 -----------   ------   -------------------------------------------------------
    1 O    8     8.67   1.98  0.72  2.78  0.50  2.13  0.57
    2 H    1     0.66   0.44  0.22
    3 H    1     0.66   0.44  0.22
 Line search: 
     step= 1.00 grad=-7.2D-06 hess= 3.7D-06 energy=    -76.408955 mode=accept  
 new step= 1.00                   predicted energy=    -76.408955

          --------
          Step   2
          --------

                                 NWChem DFT Module
                                 -----------------


                                     cpd02820




  The DFT is already converged 

         Total DFT energy =    -76.408954505753



                         DFT ENERGY GRADIENTS

    atom               coordinates                        gradient
                 x          y          z           x          y          z
   1 O       0.001970   0.227926   0.000000    0.000009  -0.000145  -0.000000
   2 H      -1.446586  -0.891048  -0.000000    0.000094   0.000068   0.000000
   3 H       1.431256  -0.915518   0.000000   -0.000103   0.000077   0.000000


  Step       Energy      Delta E   Gmax     Grms     Xrms     Xmax   Walltime
  ---- ---------------- -------- -------- -------- -------- -------- --------
@    2     -76.40895451 -3.5D-06  0.00014  0.00008  0.00186  0.00348      4.6
                                     ok       ok                    


                                 NWChem DFT Module
                                 -----------------


                                     cpd02820



  Caching 1-el integrals 
   Time after variat. SCF:      4.7

     ---------------------------------------------
      Total Density - Mulliken Population Analysis
     ---------------------------------------------

    Atom       Charge   Shell Charges
 -----------   ------   -------------------------------------------------------
    1 O    8     8.77   1.99  0.90  2.92  0.98  1.94  0.04
    2 H    1     0.61   0.48  0.14
    3 H    1     0.61   0.48  0.14
   Time prior to 1st pass:      4.7


         Total DFT energy =      -76.408954525702
      One electron energy =     -122.934645200744
           Coulomb energy =       46.781623443269
    Exchange-Corr. energy =       -9.343157484753
 Nuclear repulsion energy =        9.087224716526

 Numeric. integr. density =       10.000001096785

     Total iterative time =      0.4s



                       DFT Final Molecular Orbital Analysis
                       ------------------------------------

 Vector    1  Occ=2.000000D+00  E=-1.913820D+01
              MO Center=  1.0D-03,  1.2D-01, -9.0D-17, r^2= 1.5D-02
   Bfn.  Coefficient  Atom+Function         Bfn.  Coefficient  Atom+Function  
  ----- ------------  ---------------      ----- ------------  ---------------
     1      0.992860  1 O  s                  2      0.026224  1 O  s          

 Vector    2  Occ=2.000000D+00  E=-9.978643D-01
              MO Center= -7.3D-04, -8.7D-02, -1.4D-14, r^2= 5.1D-01
   Bfn.  Coefficient  Atom+Function         Bfn.  Coefficient  Atom+Function  
  ----- ------------  ---------------      ----- ------------  ---------------
     2      0.469220  1 O  s                  6      0.439549  1 O  s          
     1     -0.209505  1 O  s                 16      0.139130  2 H  s          
    18      0.139127  3 H  s                  4     -0.127668  1 O  py         
     8     -0.060651  1 O  py         

 Vector    3  Occ=2.000000D+00  E=-5.171266D-01
              MO Center= -9.2D-04, -1.1D-01, -3.9D-15, r^2= 7.9D-01
   Bfn.  Coefficient  Atom+Function         Bfn.  Coefficient  Atom+Function  
  ----- ------------  ---------------      ----- ------------  ---------------
     3      0.517416  1 O  px                 7      0.269759  1 O  px         
    16     -0.237433  2 H  s                 18      0.237433  3 H  s          
    17     -0.141958  2 H  s                 19      0.141958  3 H  s          
    11     -0.071469  1 O  dxy        

 Vector    4  Occ=2.000000D+00  E=-3.722155D-01
              MO Center=  1.7D-03,  2.0D-01, -2.4D-14, r^2= 7.0D-01
   Bfn.  Coefficient  Atom+Function         Bfn.  Coefficient  Atom+Function  
  ----- ------------  ---------------      ----- ------------  ---------------
     4      0.551799  1 O  py                 6      0.410405  1 O  s          
     8      0.372134  1 O  py                 2      0.177248  1 O  s          
    16     -0.143735  2 H  s                 18     -0.143736  3 H  s          
    17     -0.114287  2 H  s                 19     -0.114289  3 H  s          
     1     -0.088092  1 O  s                 13     -0.052414  1 O  dyy        

 Vector    5  Occ=2.000000D+00  E=-2.911922D-01
              MO Center=  8.6D-04,  1.0D-01,  1.1D-14, r^2= 6.0D-01
   Bfn.  Coefficient  Atom+Function         Bfn.  Coefficient  Atom+Function  
  ----- ------------  ---------------      ----- ------------  ---------------
     5      0.644584  1 O  pz                 9      0.506041  1 O  pz         
    14     -0.061369  1 O  dyz        

 Vector    6  Occ=0.000000D+00  E= 6.258800D-02
              MO Center= -5.2D-03, -6.2D-01,  2.1D-14, r^2= 2.4D+00
   Bfn.  Coefficient  Atom+Function         Bfn.  Coefficient  Atom+Function  
  ----- ------------  ---------------      ----- ------------  ---------------
     6      1.257695  1 O  s                 17     -0.968987  2 H  s          
    19     -0.969015  3 H  s                  8     -0.477442  1 O  py         
     4     -0.280683  1 O  py                 2      0.119311  1 O  s          
     1     -0.100642  1 O  s                 16     -0.096298  2 H  s          
    18     -0.096303  3 H  s                 15     -0.058034  1 O  dzz        

 Vector    7  Occ=0.000000D+00  E= 1.481037D-01
              MO Center= -4.8D-03, -5.7D-01, -2.2D-16, r^2= 2.5D+00
   Bfn.  Coefficient  Atom+Function         Bfn.  Coefficient  Atom+Function  
  ----- ------------  ---------------      ----- ------------  ---------------
    17      1.277676  2 H  s                 19     -1.277635  3 H  s          
     7      0.758754  1 O  px                 3      0.413459  1 O  px         
    16      0.107367  2 H  s                 18     -0.107368  3 H  s          
    11     -0.031921  1 O  dxy        

 Vector    8  Occ=0.000000D+00  E= 7.724522D-01
              MO Center= -1.2D-03, -1.5D-01, -9.7D-17, r^2= 1.6D+00
   Bfn.  Coefficient  Atom+Function         Bfn.  Coefficient  Atom+Function  
  ----- ------------  ---------------      ----- ------------  ---------------
    16      0.840183  2 H  s                 18     -0.840237  3 H  s          
    17     -0.655426  2 H  s                 19      0.655480  3 H  s          
     7      0.430259  1 O  px                11      0.339494  1 O  dxy        
     3      0.172280  1 O  px         

 Vector    9  Occ=0.000000D+00  E= 8.608757D-01
              MO Center= -1.8D-03, -2.1D-01,  7.7D-14, r^2= 1.3D+00
   Bfn.  Coefficient  Atom+Function         Bfn.  Coefficient  Atom+Function  
  ----- ------------  ---------------      ----- ------------  ---------------
    16      0.711995  2 H  s                 18      0.711935  3 H  s          
     4      0.707528  1 O  py                17     -0.552262  2 H  s          
    19     -0.552239  3 H  s                  8     -0.382856  1 O  py         
    10      0.153443  1 O  dxx                2     -0.135840  1 O  s          
     6      0.135928  1 O  s                 15     -0.119395  1 O  dzz        

 Vector   10  Occ=0.000000D+00  E= 8.907750D-01
              MO Center=  1.0D-03,  1.2D-01, -3.0D-13, r^2= 1.1D+00
   Bfn.  Coefficient  Atom+Function         Bfn.  Coefficient  Atom+Function  
  ----- ------------  ---------------      ----- ------------  ---------------
     9     -1.038626  1 O  pz                 5      0.959431  1 O  pz         
    14      0.028414  1 O  dyz        

 Vector   11  Occ=0.000000D+00  E= 8.950803D-01
              MO Center=  2.8D-03,  3.2D-01,  2.1D-13, r^2= 1.4D+00
   Bfn.  Coefficient  Atom+Function         Bfn.  Coefficient  Atom+Function  
  ----- ------------  ---------------      ----- ------------  ---------------
     6      1.409921  1 O  s                  2     -0.835982  1 O  s          
     8      0.827665  1 O  py                 4     -0.558701  1 O  py         
    16      0.467498  2 H  s                 18      0.467485  3 H  s          
    17     -0.373195  2 H  s                 19     -0.373203  3 H  s          
    15     -0.327400  1 O  dzz               13     -0.276894  1 O  dyy        

 Vector   12  Occ=0.000000D+00  E= 1.065772D+00
              MO Center=  8.7D-04,  1.0D-01,  2.5D-15, r^2= 1.5D+00
   Bfn.  Coefficient  Atom+Function         Bfn.  Coefficient  Atom+Function  
  ----- ------------  ---------------      ----- ------------  ---------------
     7      1.628050  1 O  px                 3     -0.989175  1 O  px         
    17      0.926470  2 H  s                 19     -0.926452  3 H  s          
    11      0.027828  1 O  dxy        

 Vector   13  Occ=0.000000D+00  E= 1.193419D+00
              MO Center= -3.1D-03, -3.7D-01,  1.4D-14, r^2= 1.4D+00
   Bfn.  Coefficient  Atom+Function         Bfn.  Coefficient  Atom+Function  
  ----- ------------  ---------------      ----- ------------  ---------------
     6      3.596590  1 O  s                  2     -1.457473  1 O  s          
     8     -1.105542  1 O  py                17     -0.773155  2 H  s          
    19     -0.773129  3 H  s                 10     -0.657498  1 O  dxx        
     4      0.402569  1 O  py                13     -0.393293  1 O  dyy        
    16     -0.352063  2 H  s                 18     -0.352065  3 H  s          

 Vector   14  Occ=0.000000D+00  E= 1.729115D+00
              MO Center=  1.5D-03,  1.7D-01,  5.1D-15, r^2= 6.2D-01
   Bfn.  Coefficient  Atom+Function         Bfn.  Coefficient  Atom+Function  
  ----- ------------  ---------------      ----- ------------  ---------------
    13      1.006847  1 O  dyy               10     -0.595742  1 O  dxx        
    15     -0.343988  1 O  dzz                6     -0.252390  1 O  s          
     8      0.143542  1 O  py                 2      0.090115  1 O  s          
    16      0.081722  2 H  s                 18      0.081722  3 H  s          
    17      0.042255  2 H  s                 19      0.042254  3 H  s          

 Vector   15  Occ=0.000000D+00  E= 1.746378D+00
              MO Center=  1.0D-03,  1.2D-01, -3.5D-16, r^2= 6.1D-01
   Bfn.  Coefficient  Atom+Function         Bfn.  Coefficient  Atom+Function  
  ----- ------------  ---------------      ----- ------------  ---------------
    12      1.731988  1 O  dxz        

 Vector   16  Occ=0.000000D+00  E= 1.779812D+00
              MO Center=  1.2D-03,  1.5D-01,  1.9D-15, r^2= 6.1D-01
   Bfn.  Coefficient  Atom+Function         Bfn.  Coefficient  Atom+Function  
  ----- ------------  ---------------      ----- ------------  ---------------
    14      1.730668  1 O  dyz                9      0.034996  1 O  pz         

 Vector   17  Occ=0.000000D+00  E= 2.280520D+00
              MO Center=  4.3D-05,  3.4D-03,  1.5D-15, r^2= 8.3D-01
   Bfn.  Coefficient  Atom+Function         Bfn.  Coefficient  Atom+Function  
  ----- ------------  ---------------      ----- ------------  ---------------
     6      1.538564  1 O  s                 15     -1.131097  1 O  dzz        
    16     -0.812221  2 H  s                 18     -0.812246  3 H  s          
     8     -0.738919  1 O  py                10      0.736222  1 O  dxx        
     2     -0.514828  1 O  s                 17     -0.141357  2 H  s          
    19     -0.141347  3 H  s                 13      0.070659  1 O  dyy        

 Vector   18  Occ=0.000000D+00  E= 2.577035D+00
              MO Center=  5.5D-04,  6.4D-02,  2.1D-15, r^2= 8.6D-01
   Bfn.  Coefficient  Atom+Function         Bfn.  Coefficient  Atom+Function  
  ----- ------------  ---------------      ----- ------------  ---------------
    11      2.202917  1 O  dxy               16     -0.923420  2 H  s          
    18      0.923370  3 H  s                  7     -0.842329  1 O  px         
    17      0.050197  2 H  s                 19     -0.050209  3 H  s          
     3      0.036985  1 O  px         

 Vector   19  Occ=0.000000D+00  E= 3.551880D+00
              MO Center=  1.0D-03,  1.2D-01, -1.5D-15, r^2= 1.0D+00
   Bfn.  Coefficient  Atom+Function         Bfn.  Coefficient  Atom+Function  
  ----- ------------  ---------------      ----- ------------  ---------------
     6      3.689421  1 O  s                 15     -1.578740  1 O  dzz        
    13     -1.549619  1 O  dyy               10     -1.526090  1 O  dxx        
    17     -0.554508  2 H  s                 19     -0.554498  3 H  s          
     1     -0.467943  1 O  s                  8     -0.333946  1 O  py         
     2      0.286728  1 O  s                  4      0.116593  1 O  py         


     ---------------------------------------------
      Total Density - Mulliken Population Analysis
     ---------------------------------------------

    Atom       Charge   Shell Charges
 -----------   ------   -------------------------------------------------------
    1 O    8     8.77   1.99  0.90  2.92  0.98  1.94  0.04
    2 H    1     0.61   0.48  0.14
    3 H    1     0.61   0.48  0.14

     -------------------------------------------
      Total Density - Lowdin Population Analysis
     -------------------------------------------

    Atom       Charge   Shell Charges
 -----------   ------   -------------------------------------------------------
    1 O    8     8.67   1.98  0.72  2.78  0.50  2.13  0.57
    2 H    1     0.66   0.44  0.22
    3 H    1     0.66   0.44  0.22
 Line search: 
     step= 1.00 grad=-7.4D-08 hess= 5.4D-08 energy=    -76.408955 mode=accept  
 new step= 1.00                   predicted energy=    -76.408955

          --------
          Step   3
          --------

                                 NWChem DFT Module
                                 -----------------


                                     cpd02820




  The DFT is already converged 

         Total DFT energy =    -76.408954525702



                         DFT ENERGY GRADIENTS

    atom               coordinates                        gradient
                 x          y          z           x          y          z
   1 O       0.001957   0.228048  -0.000000   -0.000006   0.000035  -0.000000
   2 H      -1.446820  -0.891101   0.000000   -0.000028  -0.000015   0.000000
   3 H       1.431503  -0.915586  -0.000000    0.000034  -0.000020   0.000000


  Step       Energy      Delta E   Gmax     Grms     Xrms     Xmax   Walltime
  ---- ---------------- -------- -------- -------- -------- -------- --------
@    3     -76.40895453 -2.0D-08  0.00003  0.00002  0.00012  0.00025      5.8
                                     ok       ok       ok       ok  


      ----------------------
      Optimization converged
      ----------------------


  Step       Energy      Delta E   Gmax     Grms     Xrms     Xmax   Walltime
  ---- ---------------- -------- -------- -------- -------- -------- --------
@    3     -76.40895453 -2.0D-08  0.00003  0.00002  0.00012  0.00025      5.8
                                     ok       ok       ok       ok  



                         Geometry "geometry" -> "geometry"
                         ---------------------------------

 Output coordinates in angstroms (scale by  1.889725989 to convert to a.u.)

  No.       Tag          Charge          X              Y              Z
 ---- ---------------- ---------- -------------- -------------- --------------
    1 O                    8.0000     0.00103536     0.12067762    -0.00000000
    2 H                    1.0000    -0.76562401    -0.47155033     0.00000000
    3 H                    1.0000     0.75751865    -0.48450729    -0.00000000

      Atomic Mass 
      ----------- 

      O                 15.994910
      H                  1.007825


 Effective nuclear repulsion energy (a.u.)       9.0872247165

            Nuclear Dipole moment (a.u.) 
            ----------------------------
        X                 Y               Z
 ---------------- ---------------- ----------------
     0.0003355183     0.0176941592    -0.0000000000



                                NWChem Input Module
                                -------------------


                              NWChem Property Module
                              ----------------------


                                 NWChem DFT Module
                                 -----------------


                                     cpd02820



  Caching 1-el integrals 
   Time after variat. SCF:      5.9

     ---------------------------------------------
      Total Density - Mulliken Population Analysis
     ---------------------------------------------

    Atom       Charge   Shell Charges
 -----------   ------   -------------------------------------------------------
    1 O    8     8.77   1.99  0.90  2.92  0.98  1.94  0.04
    2 H    1     0.61   0.48  0.14
    3 H    1     0.61   0.48  0.14
   Time prior to 1st pass:      5.9


         Total DFT energy =      -76.408953971614
      One electron energy =     -122.935044078441
           Coulomb energy =       46.782077645459
    Exchange-Corr. energy =       -9.343212255158
 Nuclear repulsion energy =        9.087224716526

 Numeric. integr. density =       10.000000399791

     Total iterative time =      0.5s



                       DFT Final Molecular Orbital Analysis
                       ------------------------------------

 Vector    1  Occ=2.000000D+00  E=-1.913818D+01
              MO Center=  1.0D-03,  1.2D-01,  1.9D-18, r^2= 1.5D-02
   Bfn.  Coefficient  Atom+Function         Bfn.  Coefficient  Atom+Function  
  ----- ------------  ---------------      ----- ------------  ---------------
     1      0.992860  1 O  s                  2      0.026224  1 O  s          

 Vector    2  Occ=2.000000D+00  E=-9.978606D-01
              MO Center= -7.3D-04, -8.7D-02, -8.0D-15, r^2= 5.1D-01
   Bfn.  Coefficient  Atom+Function         Bfn.  Coefficient  Atom+Function  
  ----- ------------  ---------------      ----- ------------  ---------------
     2      0.469216  1 O  s                  6      0.439548  1 O  s          
     1     -0.209504  1 O  s                 16      0.139131  2 H  s          
    18      0.139128  3 H  s                  4     -0.127671  1 O  py         
     8     -0.060654  1 O  py         

 Vector    3  Occ=2.000000D+00  E=-5.171238D-01
              MO Center= -9.2D-04, -1.1D-01,  1.4D-16, r^2= 7.9D-01
   Bfn.  Coefficient  Atom+Function         Bfn.  Coefficient  Atom+Function  
  ----- ------------  ---------------      ----- ------------  ---------------
     3      0.517410  1 O  px                 7      0.269759  1 O  px         
    16     -0.237435  2 H  s                 18      0.237434  3 H  s          
    17     -0.141961  2 H  s                 19      0.141962  3 H  s          
    11     -0.071471  1 O  dxy        

 Vector    4  Occ=2.000000D+00  E=-3.722080D-01
              MO Center=  1.7D-03,  2.0D-01,  2.9D-14, r^2= 7.0D-01
   Bfn.  Coefficient  Atom+Function         Bfn.  Coefficient  Atom+Function  
  ----- ------------  ---------------      ----- ------------  ---------------
     4      0.551791  1 O  py                 6      0.410416  1 O  s          
     8      0.372135  1 O  py                 2      0.177251  1 O  s          
    16     -0.143736  2 H  s                 18     -0.143737  3 H  s          
    17     -0.114292  2 H  s                 19     -0.114294  3 H  s          
     1     -0.088094  1 O  s                 13     -0.052415  1 O  dyy        

 Vector    5  Occ=2.000000D+00  E=-2.911856D-01
              MO Center=  8.6D-04,  1.0D-01, -3.5D-14, r^2= 6.0D-01
   Bfn.  Coefficient  Atom+Function         Bfn.  Coefficient  Atom+Function  
  ----- ------------  ---------------      ----- ------------  ---------------
     5      0.644581  1 O  pz                 9      0.506045  1 O  pz         
    14     -0.061371  1 O  dyz        

 Vector    6  Occ=0.000000D+00  E= 6.258764D-02
              MO Center= -5.2D-03, -6.2D-01,  3.8D-14, r^2= 2.4D+00
   Bfn.  Coefficient  Atom+Function         Bfn.  Coefficient  Atom+Function  
  ----- ------------  ---------------      ----- ------------  ---------------
     6      1.257696  1 O  s                 17     -0.968989  2 H  s          
    19     -0.969015  3 H  s                  8     -0.477447  1 O  py         
     4     -0.280686  1 O  py                 2      0.119308  1 O  s          
     1     -0.100642  1 O  s                 16     -0.096297  2 H  s          
    18     -0.096302  3 H  s                 15     -0.058035  1 O  dzz        

 Vector    7  Occ=0.000000D+00  E= 1.481045D-01
              MO Center= -4.8D-03, -5.7D-01,  6.8D-17, r^2= 2.5D+00
   Bfn.  Coefficient  Atom+Function         Bfn.  Coefficient  Atom+Function  
  ----- ------------  ---------------      ----- ------------  ---------------
    17      1.277679  2 H  s                 19     -1.277639  3 H  s          
     7      0.758761  1 O  px                 3      0.413459  1 O  px         
    16      0.107365  2 H  s                 18     -0.107365  3 H  s          
    11     -0.031924  1 O  dxy        

 Vector    8  Occ=0.000000D+00  E= 7.724512D-01
              MO Center= -1.2D-03, -1.5D-01, -4.1D-16, r^2= 1.6D+00
   Bfn.  Coefficient  Atom+Function         Bfn.  Coefficient  Atom+Function  
  ----- ------------  ---------------      ----- ------------  ---------------
    16      0.840184  2 H  s                 18     -0.840238  3 H  s          
    17     -0.655422  2 H  s                 19      0.655477  3 H  s          
     7      0.430265  1 O  px                11      0.339491  1 O  dxy        
     3      0.172280  1 O  px         

 Vector    9  Occ=0.000000D+00  E= 8.608771D-01
              MO Center= -1.8D-03, -2.1D-01,  5.5D-13, r^2= 1.3D+00
   Bfn.  Coefficient  Atom+Function         Bfn.  Coefficient  Atom+Function  
  ----- ------------  ---------------      ----- ------------  ---------------
    16      0.712050  2 H  s                 18      0.711990  3 H  s          
     4      0.707465  1 O  py                17     -0.552302  2 H  s          
    19     -0.552279  3 H  s                  8     -0.382756  1 O  py         
    10      0.153426  1 O  dxx                2     -0.135932  1 O  s          
     6      0.136080  1 O  s                 15     -0.119430  1 O  dzz        

 Vector   10  Occ=0.000000D+00  E= 8.907808D-01
              MO Center=  1.0D-03,  1.2D-01,  3.0D-12, r^2= 1.1D+00
   Bfn.  Coefficient  Atom+Function         Bfn.  Coefficient  Atom+Function  
  ----- ------------  ---------------      ----- ------------  ---------------
     9     -1.038624  1 O  pz                 5      0.959433  1 O  pz         
    14      0.028413  1 O  dyz        

 Vector   11  Occ=0.000000D+00  E= 8.950843D-01
              MO Center=  2.8D-03,  3.2D-01, -4.3D-12, r^2= 1.4D+00
   Bfn.  Coefficient  Atom+Function         Bfn.  Coefficient  Atom+Function  
  ----- ------------  ---------------      ----- ------------  ---------------
     6      1.409905  1 O  s                  2     -0.835965  1 O  s          
     8      0.827709  1 O  py                 4     -0.558784  1 O  py         
    16      0.467418  2 H  s                 18      0.467404  3 H  s          
    17     -0.373131  2 H  s                 19     -0.373139  3 H  s          
    15     -0.327386  1 O  dzz               13     -0.276898  1 O  dyy        

 Vector   12  Occ=0.000000D+00  E= 1.065777D+00
              MO Center=  8.7D-04,  1.0D-01, -5.6D-16, r^2= 1.5D+00
   Bfn.  Coefficient  Atom+Function         Bfn.  Coefficient  Atom+Function  
  ----- ------------  ---------------      ----- ------------  ---------------
     7      1.628045  1 O  px                 3     -0.989178  1 O  px         
    17      0.926467  2 H  s                 19     -0.926449  3 H  s          
    11      0.027829  1 O  dxy        

 Vector   13  Occ=0.000000D+00  E= 1.193420D+00
              MO Center= -3.1D-03, -3.7D-01,  6.1D-13, r^2= 1.4D+00
   Bfn.  Coefficient  Atom+Function         Bfn.  Coefficient  Atom+Function  
  ----- ------------  ---------------      ----- ------------  ---------------
     6      3.596594  1 O  s                  2     -1.457475  1 O  s          
     8     -1.105542  1 O  py                17     -0.773156  2 H  s          
    19     -0.773130  3 H  s                 10     -0.657498  1 O  dxx        
     4      0.402572  1 O  py                13     -0.393293  1 O  dyy        
    16     -0.352062  2 H  s                 18     -0.352064  3 H  s          

 Vector   14  Occ=0.000000D+00  E= 1.729118D+00
              MO Center=  1.5D-03,  1.7D-01,  6.4D-15, r^2= 6.2D-01
   Bfn.  Coefficient  Atom+Function         Bfn.  Coefficient  Atom+Function  
  ----- ------------  ---------------      ----- ------------  ---------------
    13      1.006848  1 O  dyy               10     -0.595742  1 O  dxx        
    15     -0.343986  1 O  dzz                6     -0.252394  1 O  s          
     8      0.143545  1 O  py                 2      0.090116  1 O  s          
    16      0.081723  2 H  s                 18      0.081724  3 H  s          
    17      0.042256  2 H  s                 19      0.042255  3 H  s          

 Vector   15  Occ=0.000000D+00  E= 1.746382D+00
              MO Center=  1.0D-03,  1.2D-01,  6.7D-16, r^2= 6.1D-01
   Bfn.  Coefficient  Atom+Function         Bfn.  Coefficient  Atom+Function  
  ----- ------------  ---------------      ----- ------------  ---------------
    12      1.731988  1 O  dxz        

 Vector   16  Occ=0.000000D+00  E= 1.779817D+00
              MO Center=  1.2D-03,  1.5D-01, -2.7D-15, r^2= 6.1D-01
   Bfn.  Coefficient  Atom+Function         Bfn.  Coefficient  Atom+Function  
  ----- ------------  ---------------      ----- ------------  ---------------
    14      1.730667  1 O  dyz                9      0.034996  1 O  pz         

 Vector   17  Occ=0.000000D+00  E= 2.280523D+00
              MO Center=  4.4D-05,  3.4D-03,  6.9D-15, r^2= 8.3D-01
   Bfn.  Coefficient  Atom+Function         Bfn.  Coefficient  Atom+Function  
  ----- ------------  ---------------      ----- ------------  ---------------
     6      1.538557  1 O  s                 15     -1.131096  1 O  dzz        
    16     -0.812219  2 H  s                 18     -0.812244  3 H  s          
     8     -0.738916  1 O  py                10      0.736223  1 O  dxx        
     2     -0.514828  1 O  s                 17     -0.141356  2 H  s          
    19     -0.141346  3 H  s                 13      0.070661  1 O  dyy        

 Vector   18  Occ=0.000000D+00  E= 2.577037D+00
              MO Center=  5.5D-04,  6.4D-02,  6.4D-17, r^2= 8.6D-01
   Bfn.  Coefficient  Atom+Function         Bfn.  Coefficient  Atom+Function  
  ----- ------------  ---------------      ----- ------------  ---------------
    11      2.202918  1 O  dxy               16     -0.923418  2 H  s          
    18      0.923369  3 H  s                  7     -0.842328  1 O  px         
    17      0.050197  2 H  s                 19     -0.050209  3 H  s          
     3      0.036986  1 O  px         

 Vector   19  Occ=0.000000D+00  E= 3.551887D+00
              MO Center=  1.0D-03,  1.2D-01,  1.1D-14, r^2= 1.0D+00
   Bfn.  Coefficient  Atom+Function         Bfn.  Coefficient  Atom+Function  
  ----- ------------  ---------------      ----- ------------  ---------------
     6      3.689419  1 O  s                 15     -1.578741  1 O  dzz        
    13     -1.549618  1 O  dyy               10     -1.526089  1 O  dxx        
    17     -0.554507  2 H  s                 19     -0.554498  3 H  s          
     1     -0.467944  1 O  s                  8     -0.333947  1 O  py         
     2      0.286730  1 O  s                  4      0.116594  1 O  py         


     ---------------------------------------------
      Total Density - Mulliken Population Analysis
     ---------------------------------------------

    Atom       Charge   Shell Charges
 -----------   ------   -------------------------------------------------------
    1 O    8     8.77   1.99  0.90  2.92  0.98  1.94  0.04
    2 H    1     0.61   0.48  0.14
    3 H    1     0.61   0.48  0.14

     -------------------------------------------
      Total Density - Lowdin Population Analysis
     -------------------------------------------

    Atom       Charge   Shell Charges
 -----------   ------   -------------------------------------------------------
    1 O    8     8.67   1.98  0.72  2.78  0.50  2.13  0.57
    2 H    1     0.66   0.44  0.22
    3 H    1     0.66   0.44  0.22

          -------------
          Dipole Moment
          -------------

 Center of charge (in au) is the expansion point
         X =       0.0000336 Y =       0.0017694 Z =      -0.0000000

   Dipole moment        0.8243642618 A.U.
             DMX       -0.0070086067 DMXEFC        0.0000000000
             DMY       -0.8243344683 DMYEFC        0.0000000000
             DMZ        0.0000000000 DMZEFC        0.0000000000
   -EFC- dipole         0.0000000000 A.U.
   Total dipole         0.8243642618 A.U.

   Dipole moment        2.0953407885 Debye(s)
             DMX       -0.0178142359 DMXEFC        0.0000000000
             DMY       -2.0952650603 DMYEFC        0.0000000000
             DMZ        0.0000000000 DMZEFC        0.0000000000
   -EFC- dipole         0.0000000000 DEBYE(S)
   Total dipole         2.0953407885 DEBYE(S)

 1 a.u. = 2.541766 Debyes 


                                NWChem Input Module
                                -------------------




                                     CITATION
                                     --------
                Please cite the following reference when publishing
                           results obtained with NWChem:

                 M. Valiev, E.J. Bylaska, N. Govind, K. Kowalski,
              T.P. Straatsma, H.J.J. van Dam, D. Wang, J. Nieplocha,
                        E. Apra, T.L. Windus, W.A. de Jong
                 "NWChem: a comprehensive and scalable open-source
                  solution for large scale molecular simulations"
                      Comput. Phys. Commun. 181, 1477 (2010)
                           doi:10.1016/j.cpc.2010.04.018

                                      AUTHORS
                                      -------
          E. Apra, E. J. Bylaska, W. A. de Jong, N. Govind, K. Kowalski,
       T. P. Straatsma, M. Valiev, H. J. J. van Dam, D. Wang, T. L. Windus,
        J. Hammond, J. Autschbach, K. Bhaskaran-Nair, J. Brabec, K. Lopata,
    S. A. Fischer, S. Krishnamoorthy, M. Jacquelin, W. Ma, M. Klemm, O. Villa,
      Y. Chen, V. Anisimov, F. Aquino, S. Hirata, M. T. Hackler, V. Konjkov,
            D. Mejia-Rodriguez, T. Risthaus, M. Malagoli, A. Marenich,
   A. Otero-de-la-Roza, J. Mullin, P. Nichols, R. Peverati, J. Pittner, Y. Zhao,
        P.-D. Fan, A. Fonari, M. J. Williamson, R. J. Harrison, J. R. Rehr,
      M. Dupuis, D. Silverstein, D. M. A. Smith, J. Nieplocha, V. Tipparaju,
    M. Krishnan, B. E. Van Kuiken, A. Vazquez-Mayagoitia, L. Jensen, M. Swart,
      Q. Wu, T. Van Voorhis, A. A. Auer, M. Nooijen, L. D. Crosby, E. Brown,
      G. Cisneros, G. I. Fann, H. Fruchtl, J. Garza, K. Hirao, R. A. Kendall,
      J. A. Nichols, K. Tsemekhman, K. Wolinski, J. Anchell, D. E. Bernholdt,
      P. Borowski, T. Clark, D. Clerc, H. Dachsel, M. J. O. Deegan, K. Dyall,
    D. Elwood, E. Glendening, M. Gutowski, A. C. Hess, J. Jaffe, B. G. Johnson,
     J. Ju, R. Kobayashi, R. Kutteh, Z. Lin, R. Littlefield, X. Long, B. Meng,
      T. Nakajima, S. Niu, L. Pollack, M. Rosing, K. Glaesemann, G. Sandrone,
      M. Stave, H. Taylor, G. Thomas, J. H. van Lenthe, A. T. Wong, Z. Zhang.

 Total times  cpu:        3.3s     wall:        7.0s
